# vtk DataFile Version 2.0
sampleSurface
ASCII
DATASET POLYDATA
POINTS 4081 float
1.28026 0.147977 0.248075 1.28026 0.112559 0.269763 1.28026 0.0967324 0.282557 1.28026 0.186825
0.233392 1.27781 0.156989 0.266477 1.2778 0.122587 0.287531 1.2778 0.112004 0.296086
1.2905 0.135932 0.223482 1.28026 0.206635 0.228732 1.2778 0.194714 0.252207 1.2905
0.097304 0.247147 1.2778 0.20796 0.249091 1.2905 0.17831 0.207474 1.2905 0.0778162
0.2629 1.28026 0.0681028 0.312642 1.28141 0.162345 0.277414 1.27781 0.0842063 0.325311
1.2905 0.202703 0.201737 1.2814 0.128303 0.298237 1.29394 0.140789 0.233399 1.2814
0.121274 0.30392 1.29394 0.103813 0.256052 1.28026 0.247955 0.224559 1.2814 0.199667
0.263287 1.2814 0.208466 0.261217 1.27781 0.248091 0.245048 1.29394 0.181355 0.218076
1.2905 0.0465804 0.29571 1.29394 0.085159 0.271131 1.2712 0.144927 0.345177 1.29394
0.204704 0.212584 1.28141 0.0937782 0.332841 1.2712 0.226675 0.30721 1.28026 0.0456028
0.347549 1.2905 0.247774 0.197175 1.2778 0.0623466 0.359207 1.29394 0.0552592 0.302538
1.28141 0.248171 0.257227 1.2778 0.0565235 0.371506 1.28026 0.0368943 0.365943 1.28026
0.289327 0.228185 1.2712 0.118896 0.381794 1.2905 0.0220454 0.333792 1.2778 0.288271
0.24856 1.30957 0.110816 0.225251 1.29394 0.247847 0.208218 1.30957 0.153298 0.204828
1.2814 0.072142 0.366372 1.2712 0.271551 0.30507 1.30957 0.0729137 0.253274 1.30957
0.17807 0.196674 1.2814 0.0682742 0.374542 1.2778 0.301558 0.2515 1.28026 0.309197
0.232582 1.29394 0.0317738 0.338991 1.29411 0.11575 0.319842 1.3122 0.116747 0.235093
1.30957 0.0541328 0.271369 1.2905 0.292901 0.20114 1.2905 0.0113226 0.35644 1.2814
0.287926 0.260692 1.3122 0.157412 0.215543 1.29421 0.221963 0.269147 1.3122 0.0804662
0.261917 1.3122 0.181125 0.207738 1.2814 0.296752 0.262644 1.30957 0.224377 0.187872
1.27781 0.0441587 0.409898 1.3122 0.0624886 0.279238 1.29394 0.291044 0.212013 1.28026
0.0241531 0.405471 1.29655 0.17528 0.303825 1.29602 0.101267 0.338733 1.29394 0.0215096
0.36067 1.2905 0.317368 0.206554 1.30957 0.024719 0.308202 1.29655 0.179774 0.313001
1.3122 0.225451 0.199312 1.29602 0.248234 0.266755 1.2942 0.0860244 0.36198 1.29655
0.11123 0.346571 1.28141 0.0560499 0.412529 1.27781 0.339468 0.265269 1.29394 0.314464
0.217195 1.29409 0.273465 0.266426 1.29655 0.248318 0.279431 1.28026 0.348236 0.24675
1.3122 0.0343329 0.314495 1.30957 0.271514 0.187903 1.2905 -0.00258443 0.399554 1.28141
0.334257 0.276277 1.3122 0.270571 0.199342 1.29394 0.00819749 0.40194 1.2778 0.0391708
0.449922 1.30957 0.00272894 0.349895 1.28026 0.0190271 0.446683 1.30957 0.29737 0.191305
1.2712 0.0980529 0.46698 1.2905 0.359954 0.222 1.31041 0.177801 0.308971 1.31014
0.106031 0.342481 1.31116 0.178411 0.310217 1.3122 0.0132835 0.354405 1.2814 0.0511051
0.452127 1.2778 0.0392608 0.463529 1.3122 0.295322 0.202599 1.31014 0.248274 0.272817
1.29394 0.355229 0.23198 1.2778 0.374146 0.285867 1.33929 0.108923 0.222111 1.30957
-0.0063411 0.374346 1.31749 0.125045 0.322267 1.2814 0.0511649 0.461166 1.33929 0.151983
0.201411 1.28026 0.0191617 0.467034 1.28026 0.383937 0.267968 1.33929 0.0705065 0.250515
1.3176 0.219375 0.278363 1.33929 0.177099 0.193144 1.2905 -0.00816643 0.44451 1.2712
0.354963 0.34887 1.29655 0.0847633 0.418883 1.34064 0.114936 0.232087 1.3122 0.0046014
0.37781 1.2814 0.368572 0.296648 1.34064 0.156153 0.212272 1.29655 0.0947393 0.421091
1.2778 0.384841 0.294281 1.33929 0.0514648 0.268861 1.34064 0.078162 0.259276 1.34064
0.180195 0.204358 1.29394 0.00285415 0.444973 1.30957 0.342911 0.203466 1.2814 0.375675
0.302236 1.29655 0.321673 0.302856 1.34064 0.0599347 0.276837 1.28026 0.399932 0.280551
1.33929 0.224035 0.184221 1.29655 0.317301 0.312091 1.3176 0.091694 0.369717 1.3122
0.338915 0.21424 1.2905 0.398892 0.245152 1.2905 -0.0080007 0.469567 1.34064 0.225123
0.195818 1.33929 0.0216515 0.306194 1.27781 0.044778 0.503484 1.31749 0.277294 0.275266
1.2712 0.110046 0.510276 1.30957 -0.0168608 0.420294 1.29394 0.392501 0.254142 1.29394
0.00301282 0.468959 1.28141 0.0566332 0.500695 1.34064 0.0313966 0.312573 1.28026 0.0248328
0.508175 1.3122 -0.00546831 0.421792 1.33929 0.271811 0.184253 1.31041 0.0903581 0.420121
1.29409 0.0599283 0.473644 1.31116 0.0917127 0.420421 1.27781 0.413023 0.323135 1.2905
0.418587 0.260646 1.34064 0.270856 0.195849 1.2712 0.383384 0.383664 1.30957 0.385366
0.223946 1.31041 0.319221 0.308035 1.28141 0.403552 0.330791 1.33929 -0.000637114 0.348453
1.29394 0.411353 0.268973 1.31116 0.318627 0.309289 1.33929 0.298027 0.187703 1.30161
0.210436 0.424616 1.30161 0.229795 0.415135 1.28026 0.428957 0.310254 1.3122 0.379554
0.233844 1.30161 0.249153 0.405654 1.34064 0.0100614 0.353025 1.34064 0.295951 0.19915
1.2943 0.382611 0.322575 1.30161 0.217288 0.430007 1.30161 0.23325 0.42219 1.30161
0.249211 0.414373 1.2778 0.0576497 0.541708 1.2905 -0.00182414 0.514445 1.29602 0.0659089
0.498514 1.29655 0.0782486 0.495611 1.33929 -0.00983328 0.373244 1.369 0.1281 0.207491
1.30957 -0.0185833 0.467399 1.30161 0.205779 0.445663 1.369 0.0868157 0.232784 1.29394
0.00892523 0.511917 1.2814 0.0693592 0.538518 1.30957 0.407186 0.23823 1.30161 0.268636
0.414878 1.34064 0.00125864 0.376755 1.36909 0.133292 0.218092 1.30161 0.213448 0.44736
1.3122 -0.00711709 0.466883 1.28026 0.0380958 0.547531 1.369 0.173394 0.190383 1.369
0.0659707 0.249634 1.36909 0.0937735 0.242304 1.30161 0.265275 0.421978 1.3122 0.40044
0.247516 1.2778 0.0636351 0.55393 1.2814 0.0733348 0.546635 1.36909 0.176648 0.201715
1.36909 0.0738202 0.258433 1.369 0.199485 0.184245 1.29655 0.386283 0.344751 1.2778
0.435329 0.356739 1.29602 0.396141 0.336782 1.33929 0.344186 0.200029 1.30161 0.201121
0.466709 1.33877 -0.0734457 0.393462 1.36909 0.201624 0.195841 1.2905 0.450254 0.293039
1.30161 0.209608 0.464713 1.29421 0.0739698 0.523271 1.33996 -0.0606668 0.394892 1.2814
0.42563 0.364033 1.369 0.0325857 0.284701 1.30161 0.288118 0.424102 1.34064 0.340135
0.210949 1.30161 0.281338 0.429583 1.30957 -0.0161461 0.493364 1.31749 0.067713 0.467957
1.29394 0.441666 0.299981 1.28026 0.047047 0.565808 1.36909 0.0418632 0.291999 1.28026
0.451917 0.344861 1.2778 0.441315 0.36896 1.3122 -0.00478423 0.491737 1.2814 0.429605
0.372151 1.369 0.247656 0.179369 1.31013 0.0717981 0.497128 1.33929 -0.0204958 0.419815
1.30161 0.220781 0.478535 1.36909 0.247734 0.191174 1.30161 0.214672 0.483473 1.34064
-0.00894785 0.421335 1.30161 0.285407 0.446884 1.2905 0.0126521 0.557371 1.30161 0.293054
0.445085 1.29403 0.415701 0.362142 1.369 0.0063639 0.325402 1.29394 0.0227822 0.553007
1.2712 0.164877 0.581463 1.31763 0.373746 0.3259 1.28026 0.460869 0.363138 1.30957
0.44294 0.268946 1.36909 0.0167629 0.33096 1.27781 0.0859415 0.587533 1.31013 0.391436
0.340585 1.28141 0.0954128 0.579877 1.3122 0.434665 0.276919 1.30161 0.231954 0.492357
1.33929 0.387218 0.220787 1.30161 0.289477 0.464185 1.369 0.295887 0.183607 1.2712
0.398623 0.470094 1.34064 0.381326 0.23082 1.369 -0.00510579 0.349628 1.30161 0.228223
0.500237 1.30161 0.249726 0.492239 1.36909 0.293902 0.19523 1.36909 0.00578392 0.354149
1.30161 0.29799 0.466069 1.30161 0.278488 0.478153 1.32553 0.227462 0.438011 1.2905
0.475291 0.330793 1.32553 0.23838 0.432664 1.32553 0.249297 0.427318 1.2905 0.0236737
0.579876 1.29394 0.465632 0.33612 1.28026 0.0700071 0.600414 1.27781 0.454186 0.407185
1.29655 0.126229 0.554967 1.29394 0.0333324 0.574548 1.28141 0.442331 0.409973 1.30957
-0.00568816 0.539326 1.30161 0.249778 0.500094 1.30161 0.267499 0.492122 1.30161 0.284662
0.48301 1.33672 -0.0606668 0.467184 1.3122 0.00522646 0.535733 1.32553 0.224836 0.44988
1.29655 0.118283 0.56139 1.32553 0.260284 0.43252 1.33877 -0.0710248 0.464077 1.33929
-0.0222417 0.46756 1.369 0.322058 0.189399 1.34064 -0.0106191 0.467037 1.36909 0.318953
0.200774 1.33929 0.409341 0.235269 1.2712 0.206303 0.598849 1.3176 0.0835245 0.523762
1.39885 0.108543 0.22148 1.30161 0.271334 0.499952 1.34064 0.402503 0.244682 1.35472
0.171063 0.393641 1.33877 -0.268973 0.393462 1.32553 0.222209 0.461749 1.35472 0.209942
0.3746 1.29655 0.403758 0.419046 1.39885 0.151713 0.200726 1.39766 0.114571 0.231482
1.33877 -0.273754 0.393462 1.32553 0.271271 0.437721 1.39766 0.155895 0.211616 1.35472
0.248822 0.355559 1.39885 0.0700269 0.249956 1.39885 0.176909 0.192432 1.2778 0.114123
0.616388 1.29655 0.413704 0.416707 1.28026 0.474131 0.402493 1.39766 0.0777029 0.258741
1.2905 0.486312 0.353297 1.39766 0.180013 0.203678 1.2814 0.123289 0.608432 1.29394
0.476182 0.357662 1.30454 -0.054175 0.56954 1.30459 -0.0654054 0.568367 1.369 -0.0199699
0.395707 1.39885 0.0509246 0.26836 1.30957 0.472304 0.305819 1.32553 0.229851 0.471203
1.2712 0.389533 0.514091 1.36909 -0.00844443 0.398257 1.39766 0.0594176 0.276358 1.3122
0.462774 0.312214 1.32553 0.274054 0.449555 1.2814 0.130393 0.614021 1.33929 -0.0197706
0.493886 1.2778 0.124819 0.624802 1.34064 -0.00825375 0.492237 1.39885 0.223966 0.183487
1.31749 0.410748 0.370551 1.39766 0.225057 0.195115 1.37229 -0.0606668 0.394892 1.31041
0.122739 0.557788 1.2778 0.459703 0.447139 1.32553 0.237493 0.480657 1.2814 0.447799
0.449502 1.31116 0.123818 0.556915 1.28026 0.0990322 0.630118 1.32553 0.276837 0.461388
1.2905 0.0487105 0.617629 1.32553 0.249649 0.480576 1.29394 0.0572982 0.610687 1.39885
0.0210344 0.30579 1.32553 0.269321 0.470942 1.35472 0.161709 0.435911 1.369 0.367574
0.205906 1.39766 0.0308059 0.312186 1.36909 0.362522 0.216575 1.2814 0.447859 0.458541
1.30957 0.0131981 0.582513 1.3122 0.0233048 0.577073 1.32553 0.261805 0.480496 1.2778
0.459794 0.460747 1.35472 0.28795 0.374084 1.31041 0.408126 0.418019 1.30957 0.485766
0.328155 1.3122 0.475659 0.333595 1.31116 0.406776 0.418336 1.2712 0.28905 0.601966
1.33929 0.44558 0.266403 1.2712 0.329365 0.58214 1.34064 0.437193 0.274484 1.39885
0.271865 0.183519 1.39766 0.270908 0.195146 1.28026 0.115027 0.642701 1.28026 0.479803
0.443634 1.33877 -0.248485 0.462557 1.33877 -0.252585 0.462522 1.28141 0.164708 0.634392
1.369 -0.0259352 0.443754 1.36909 -0.0141546 0.44425 1.2905 0.500788 0.396223 1.29394
[...]
CELL_DATA 8006
FIELD attributes 1
zone 1 8006 float
0 0 0 0 0 0 0 0 0 0 0
0 0 0 0 0 0 0 0 0 0
0 0 0 0 0 0 0 0 0 0
0 0 0 0 0 0 0 0 0 0
0 0 0 0 0 0 0 0 0 0
0 0 0 0 0 0 0 0 0 0
0 0 0 0 0 0 0 0 0 0
0 0 0 0 0 0 0 0 0 0
0 0 0 0 0 0 0 0 0 0
0 0 0 0 0 0 0 0 0 0
0 0 0 0 0 0 0 0 0 0
0 0 0 0 0 0 0 0 0 0
0 0 0 0 0 0 0 0 0 0
0 0 0 0 0 0 0 0 0 0
0 0 0 0 0 0 0 0 0 0
0 0 0 0 0 0 0 0 0 0
0 0 0 0 0 0 0 0 0 0
0 0 0 0 0 0 0 0 0 0
0 0 0 0 0 0 0 0 0 0
0 0 0 0 0 0 0 0 0 0
0 0 0 0 0 0 0 0 0 0
0 0 0 0 0 0 0 0 0 0
0 0 0 0 0 0 0 0 0 0
0 0 0 0 0 0 0 0 0 0
0 0 0 0 0 0 0 0 0 0
0 0 0 0 0 0 0 0 0 0
0 0 0 0 0 0 0 0 0 0
0 0 0 0 0 0 0 0 0 0
0 0 0 0 0 0 0 0 0 0
0 0 0 0 0 0 0 0 0 0
0 0 0 0 0 0 0 0 0 0
0 0 0 0 0 0 0 0 0 0
0 0 0 0 0 0 0 0 0 0
0 0 0 0 0 0 0 0 0 0
0 0 0 0 0 0 0 0 0 0
0 0 0 0 0 0 0 0 0 0
0 0 0 0 0 0 0 0 0 0
0 0 0 0 0 0 0 0 0 0
0 0 0 0 0 0 0 0 0 0
0 0 0 0 0 0 0 0 0 0
0 0 0 0 0 0 0 0 0 0
0 0 1 1 1 1 1 1 1 1
1 1 2 2 2 2 2 2 2 2
2 2 0 0 0 0 0 0 0 0
0 0 0 0 0 0 0 0 0 0
0 0 0 0 0 0 0 0 0 0
0 0 0 0 0 0 0 0 0 0
0 0 0 0 0 0 0 0 0 0
0 0 0 0 0 0 0 0 0 0
0 0 0 0 0 0 0 0 0 0
0 0 0 0 0 0 0 0 0 0
0 0 0 0 0 0 0 0 0 0
0 0 0 0 0 0 0 0 0 0
0 0 0 0 0 0 0 0 0 0
0 0 0 0 0 0 0 0 0 0
0 0 0 0 0 0 0 0 0 0
0 0 0 0 0 0 0 0 0 0
0 0 0 0 0 0 0 0 0 0
0 0 0 0 0 0 0 0 0 0
0 0 0 0 0 0 0 0 0 0
0 0 0 0 0 0 0 0 0 0
0 0 0 0 0 0 0 0 0 0
0 0 0 0 0 0 0 0 0 0
0 0 0 0 0 0 0 0 0 0
0 0 0 0 0 0 0 0 0 0
0 0 0 0 0 0 0 0 0 0
0 0 0 0 0 0 0 0 0 0
0 0 0 0 0 0 0 0 0 0
0 0 0 0 0 0 0 0 0 0
0 0 0 0 0 0 0 0 0 0
0 0 0 0 0 0 0 0 0 0
0 0 0 0 0 0 0 0 0 0
0 0 0 0 0 0 0 0 0 0
0 0 0 0 0 0 0 0 0 0
0 0 0 0 0 0 0 0 0 0
0 0 0 0 0 0 0 0 0 0
0 0 0 0 0 0 0 0 0 0
0 0 0 0 0 0 0 0 0 0
0 0 0 0 0 0 0 0 0 0
0 0 0 0 0 0 0 0 0 0
0 0 0 0 0 0 0 0 0 0
0 0 0 0 0 0 0 0 0 0
0 0 0 0 0 0 0 0 0 0
0 0 0 0 0 0 0 0 0 0
0 0 0 0 0 0 0 0 0 0
0 0 0 0 0 0 0 0 0 0
3 3 3 3 3 3 3 3 3 3
4 4 4 4 4 4 4 4 4 4
0 0 0 0 0 0 0 0 0 0
0 0 0 0 0 0 0 0 0 0
0 0 0 0 0 0 0 0 0 5
5 5 5 5 5 5 5 5 5 5
5 5 5 5 5 5 5 5 5 5
5 5 5 5 5 5 5 5 5 5
5 5 5 5 5 5 5 5 5 5
5 5 5 5 5 5 5 5 5 5
5 5 5 5 5 5 5 5 5 5
5 5 5 5 5 5 5 5 5 5
5 5 5 5 5 5 5 5 5 5
5 5 5 5 5 5 5 5 5 5
5 5 5 5 5 5 5 5 5 5
5 5 5 5 5 5 5 5 5 5
5 5 5 5 5 5 5 5 5 5
5 5 5 5 5 5 5 5 5 5
5 5 5 5 5 5 5 5 5 5
5 5 5 5 5 5 5 5 5 5
5 5 5 5 5 5 5 5 5 5
5 5 5 5 5 5 5 5 5 5
5 5 5 5 5 5 5 5 5 5
5 5 5 5 5 5 5 5 5 5
5 5 5 5 5 5 5 5 5 5
5 5 5 5 5 5 5 5 5 5
5 5 5 5 5 5 5 5 5 5
5 5 5 5 5 5 5 5 5 5
5 5 5 5 5 5 5 5 5 5
5 5 5 5 5 5 5 5 5 5
5 5 5 5 5 5 5 5 5 5
5 5 5 5 5 5 5 5 5 5
5 5 5 5 5 5 5 5 5 5
5 5 5 5 5 5 5 5 5 5
5 5 5 5 5 5 5 5 5 5
5 5 5 5 5 5 5 5 5 5
5 5 5 5 5 5 5 5 5 5
5 5 5 5 5 5 5 5 5 5
5 5 5 5 5 5 5 5 5 5
5 5 5 5 5 5 5 5 5 5
5 5 5 5 5 5 5 5 5 5
5 5 5 5 5 5 5 5 5 5
5 5 5 5 5 5 5 5 5 5
5 5 5 5 5 5 5 5 5 5
5 5 5 5 5 5 5 5 5 5
5 5 5 5 5 5 5 5 5 5
5 5 5 5 5 5 5 5 5 5
5 5 5 5 5 5 5 5 5 5
5 5 5 5 5 5 5 5 5 5
5 5 5 5 5 5 5 5 5 5
5 5 5 5 5 5 5 5 5 5
5 5 5 5 5 5 5 5 5 5
5 5 5 5 5 5 5 5 5 5
5 5 5 5 5 5 5 5 5 5
5 5 5 5 5 5 5 5 5 5
5 5 5 5 5 5 5 5 5 5
5 5 5 5 5 5 5 5 5 5
5 5 5 5 5 5 5 5 5 5
5 5 5 5 5 5 5 5 5 5
5 5 5 5 5 5 5 5 5 5
5 5 5 5 5 5 5 5 5 5
5 5 5 5 5 5 5 5 5 5
5 5 5 5 5 5 5 5 5 5
5 5 5 5 5 5 5 5 5 5
5 5 5 5 5 5 5 5 5 5
5 5 5 5 5 5 5 5 5 5
5 5 5 5 5 5 5 5 5 5
5 5 5 5 5 5 5 5 5 5
5 5 5 5 5 5 5 5 5 5
5 5 5 5 5 5 5 5 5 5
5 5 5 5 5 5 5 5 5 5
5 5 5 5 5 5 5 5 5 5
5 5 5 5 5 5 5 5 5 5
5 5 5 5 5 5 5 5 5 5
5 5 5 5 5 5 5 5 5 5
5 5 5 5 5 5 5 5 5 5
5 5 5 5 5 5 5 5 5 5
5 5 5 5 5 5 5 5 5 5
5 5 5 5 5 5 5 5 5 5
5 5 5 5 5 5 5 5 5 5
5 5 5 5 5 5 5 5 5 5
5 5 5 5 5 5 5 5 5 5
5 5 5 5 5 5 5 5 5 5
5 5 5 5 5 5 5 5 5 5
5 5 5 5 5 5 5 5 5 5
5 5 5 5 5 5 5 5 5 5
5 5 5 5 5 5 5 5 5 5
5 5 5 5 5 5 5 5 5 5
5 5 5 5 5 5 5 6 6 6
6 6 6 6 6 6 6 6 6 6
6 6 6 6 6 6 6 7 7 7
7 7 7 7 7 7 7 7 7 7
7 7 7 7 7 7 7 8 8 8
8 8 8 8 8 8 8 8 8 8
8 8 8 8 8 8 8 9 9 9
9 9 9 9 9 9 9 9 9 9
9 9 9 9 9 9 9 10 10 10
10 10 10 10 10 10 10 10 10 10
10 10 10 10 10 10 10 11 11 11
11 11 11 11 11 11 11 11 11 11
11 11 11 11 11 11 11 12 12 12
12 12 12 12 12 12 12 12 12 12
12 12 12 12 12 12 12 5 5 5
5 5 5 5 5 5 5 5 5 5
5 5 5 5 5 5 5 5 5 5
5 5 5 5 5 5 5 5 5 5
5 5 5 5 5 5 5 5 5 5
5 5 5 5 5 5 5 5 5 5
5 5 5 5 5 5 5 5 5 5
5 5 5 5 5 5 5 5 5 5
5 5 5 5 5 5 5 5 5 5
5 5 5 5 5 5 5 5 5 5
5 5 5 5 5 5 5 5 5 5
5 5 5 5 5 5 5 5 5 5
5 5 5 5 5 5 5 5 5 5
5 5 5 5 5 5 5 5 5 5
5 5 5 5 5 5 5 5 5 5
5 5 5 5 5 5 5 5 5 5
5 5 5 5 5 5 5 5 5 5
5 5 5 5 5 5 5 5 5 5
5 5 5 5 5 5 5 5 5 5
5 5 5 5 5 5 5 5 5 5
5 5 5 5 5 5 5 5 5 5
5 5 5 5 5 5 5 5 5 5
5 5 5 5 5 5 5 5 5 5
5 5 5 5 5 5 5 5 5 5
5 5 5 5 5 5 5 5 5 5
5 5 5 5 5 5 5 5 5 5
5 5 5 5 5 5 5 5 5 5
5 5 5 5 5 5 5 5 5 5
5 5 5 5 5 5 5 5 5 5
5 5 5 5 5 5 5 5 5 5
5 5 5 5 5 5 5 5 5 5
5 5 5 5 5 5 5 5 5 5
5 5 5 5 5 5 5 5 5 5
5 5 5 5 5 5 5 5 5 5
5 5 5 5 5 5 5 5 5 5
5 5 5 5 5 5 5 5 5 5
5 5 5 5 5 5 5 5 5 5
5 5 5 5 5 5 5 5 5 5
5 5 5 5 5 5 5 5 5 5
5 5 5 5 5 5 5 5 5 5
5 5 5 5 5 5 5 5 5 5
5 5 5 5 5 5 5 5 5 5
5 5 5 5 5 5 5 5 5 5
5 5 5 5 5 5 5 5 5 5
5 5 5 5 5 5 5 5 5 5
5 5 5 5 5 5 5 5 5 5
5 5 5 5 5 5 5 5 5 5
5 5 5 5 5 5 5 5 5 5
5 5 5 5 5 5 5 5 5 5
5 5 5 5 5 5 5 5 5 5
5 5 5 5 5 5 5 5 5 5
5 5 5 5 5 5 5 5 5 5
5 5 5 5 5 5 5 5 5 5
5 5 5 5 5 5 5 5 5 5
5 5 5 5 5 5 5 5 5 5
5 5 5 5 5 5 5 5 5 5
5 5 5 5 5 5 5 5 5 5
5 5 5 5 5 5 5 5 5 5
5 5 5 5 5 5 5 5 5 5
5 5 5 5 5 5 5 5 5 5
5 5 5 5 5 5 5 5 5 5
5 5 5 5 5 5 5 5 5 5
5 5 5 5 5 5 5 5 5 5
5 5 5 5 5 5 5 5 5 5
5 5 5 5 5 5 5 5 5 5
5 5 5 5 5 5 5 5 5 5
5 5 5 5 5 5 5 5 5 5
5 5 5 5 5 5 5 5 5 5
5 5 5 5 5 5 5 5 5 5
5 5 5 5 5 5 5 5 5 5
5 5 5 5 5 5 5 5 5 5
5 5 5 5 5 5 5 5 5 5
5 5 5 5 5 5 5 5 5 5
5 5 5 5 5 5 5 5 5 5
5 5 5 5 5 5 5 5 5 5
5 5 5 5 5 5 5 5 5 5
5 5 5 5 5 5 5 5 5 5
5 5 5 5 5 5 5 5 5 5
5 5 5 5 5 5 5 5 5 5
5 5 5 5 5 5 5 5 5 5
5 5 5 13 13 13 13 13 13 13
13 13 13 13 13 13 13 13 13 13
13 13 13 13 13 13 13 13 13 13
13 13 13 13 13 13 13 13 13 13
13 13 13 13 13 13 13 13 13 13
13 13 13 13 13 13 13 13 13 13
13 13 13 13 13 13 13 13 13 13
13 13 13 13 13 13 13 13 13 13
13 13 13 13 13 13 13 13 13 13
13 13 13 13 13 13 13 13 13 13
13 13 13 13 13 13 13 13 13 13
13 13 13 13 13 13 13 13 13 13
13 13 13 13 13 13 13 13 13 13
13 13 13 13 13 13 13 13 13 13
13 13 13 13 13 13 13 13 13 13
13 13 13 13 13 13 13 13 13 13
13 13 13 13 13 13 13 13 13 13
13 13 13 13 13 13 13 13 13 13
13 13 13 13 13 13 13 13 13 13
13 13 13 13 13 13 13 13 13 13
13 13 13 13 13 13 13 13 13 13
13 13 13 13 13 13 13 13 13 13
13 13 13 13 13 13 13 13 13 13
13 13 13 13 13 13 13 13 13 13
13 13 13 13 13 13 13 13 13 13
13 13 13 13 13 13 13 13 13 13
13 13 13 13 13 13 13 13 13 13
13 13 13 13 13 13 13 13 13 13
13 13 13 13 13 13 13 13 13 13
13 13 13 13 13 13 13 13 13 13
13 13 13 13 13 13 13 13 13 13
13 13 13 13 13 13 13 13 13 13
13 13 13 13 13 13 13 13 13 13
13 13 13 13 13 13 13 13 13 13
13 13 13 13 13 13 13 13 13 13
13 13 13 13 13 13 13 13 13 13
13 13 13 13 13 13 13 13 13 13
13 13 13 13 13 13 13 13 13 13
13 13 13 13 13 13 13 13 13 13
13 13 13 13 13 13 13 13 13 13
13 13 13 13 13 13 13 13 13 13
13 13 13 13 13 13 13 13 13 13
13 13 13 13 13 13 13 13 13 13
13 13 13 13 13 13 13 13 13 13
13 13 13 13 13 13 13 13 13 13
13 13 13 13 13 13 13 13 13 13
13 13 13 13 13 13 13 13 13 13
13 13 13 13 13 13 13 13 13 13
13 13 13 13 13 13 13 13 13 13
13 13 13 13 13 13 13 13 13 13
13 13 13 13 13 13 13 13 13 13
13 13 13 13 13 13 13 13 13 13
13 13 13 13 13 13 13 13 13 13
13 13 13 13 13 13 13 13 13 13
13 13 13 13 13 13 13 13 13 13
13 13 13 13 13 13 13 13 13 13
13 13 13 13 13 13 13 13 13 13
13 13 13 13 13 13 13 13 13 13
13 13 13 13 13 13 13 13 13 13
13 13 13 13 13 13 13 13 13 13
13 13 13 13 13 13 13 13 13 13
13 13 13 13 13 13 13 13 13 13
13 13 13 13 13 13 13 13 13 13
13 13 13 13 13 13 13 13 13 13
13 13 13 13 13 13 13 13 13 13
13 13 13 13 13 13 13 13 13 13
13 13 13 13 13 13 13 13 13 13
13 13 13 13 13 13 13 13 13 13
13 13 13 13 13 13 13 13 13 13
13 13 13 13 13 13 13 13 13 13
13 13 13 13 13 13 13 13 13 13
13 13 13 13 13 13 13 13 13 13
13 13 13 13 13 13 13 13 13 13
13 13 13 13 13 13 13 13 13 13
13 13 13 13 13 13 13 13 13 13
13 13 13 13 13 13 13 13 13 13
13 13 13 13 13 13 13 13 13 13
13 13 13 13 13 13 13 13 13 13
13 13 13 13 13 13 13 13 13 13
13 13 13 13 13 13 13 13 13 13
13 13 13 13 13 13 13 13 13 13
13 13 13 13 13 13 13 13 13 13
13 13 13 13 13 13 13 13 13 13
13 13 13 13 13 13 13 13 13 13
13 14 14 14 14 14 14 14 14 14
14 14 14 14 14 14 14 14 14 14
14 15 15 15 15 15 15 15 15 15
15 15 15 15 15 15 15 15 15 15
15 16 16 16 16 16 16 16 16 16
16 16 16 16 16 16 16 16 16 16
16 17 17 17 17 17 17 17 17 17
17 17 17 17 17 17 17 17 17 17
17 18 18 18 18 18 18 18 18 18
18 18 18 18 18 18 18 18 18 18
18 19 19 19 19 19 19 19 19 19
19 19 19 19 19 19 19 19 19 19
19 20 20 20 20 20 20 20 20 20
20 20 20 20 20 20 20 20 20 20
20 13 13 13 13 13 13 13 13 13
13 13 13 13 13 13 13 13 13 13
13 13 13 13 13 13 13 13 13 13
13 13 13 13 13 13 13 13 13 13
13 13 13 13 13 13 13 13 13 13
13 13 13 13 13 13 13 13 13 13
13 13 13 13 13 13 13 13 13 13
13 13 13 13 13 13 13 13 13 13
13 13 13 13 13 13 13 13 13 13
13 13 13 13 13 13 13 13 13 13
13 13 13 13 13 13 13 13 13 13
13 13 13 13 13 13 13 13 13 13
13 13 13 13 13 13 13 13 13 13
13 13 13 13 13 13 13 13 13 13
13 13 13 13 13 13 13 13 13 13
13 13 13 13 13 13 13 13 13 13
13 13 13 13 13 13 13 13 13 13
13 13 13 13 13 13 13 13 13 13
13 13 13 13 13 13 13 13 13 13
13 13 13 13 13 13 13 13 13 13
13 13 13 13 13 13 13 13 13 13
13 13 13 13 13 13 13 13 13 13
13 13 13 13 13 13 13 13 13 13
13 13 13 13 13 13 13 13 13 13
13 13 13 13 13 13 13 13 13 13
13 13 13 13 13 13 13 13 13 13
13 13 13 13 13 13 13 13 13 13
13 13 13 13 13 13 13 13 13 13
13 13 13 13 13 13 13 13 13 13
13 13 13 13 13 13 13 13 13 13
13 13 13 13 13 13 13 13 13 13
13 13 13 13 13 13 13 13 13 13
13 13 13 13 13 13 13 13 13 13
13 13 13 13 13 13 13 13 13 13
13 13 13 13 13 13 13 13 13 13
13 13 13 13 13 13 13 13 13 13
13 13 13 13 13 13 13 13 13 13
13 13 13 13 13 13 13 13 13 13
13 13 13 13 13 13 13 13 13 13
13 13 13 13 13 13 13 13 13 13
13 13 13 13 13 13 13 13 13 13
13 13 13 13 13 13 13 13 13 13
13 13 13 13 13 13 13 13 13 13
13 13 13 13 13 13 13 13 13 13
13 13 13 13 13 13 13 13 13 13
13 13 13 13 13 13 13 13 13 13
13 13 13 13 13 13 13 13 13 13
13 13 13 13 13 13 13 13 13 13
13 13 13 13 13 13 13 13 13 13
13 13 13 13 13 13 13 13 13 13
13 13 13 13 13 13 13 13 13 13
13 13 13 13 13 13 13 13 13 13
13 13 13 13 13 13 13 13 13 13
13 13 13 13 13 13 13 13 13 13
13 13 13 13 13 13 13 13 13 13
13 13 13 13 13 13 13 13 13 13
13 13 13 13 13 13 13 13 13 13
13 13 13 13 13 13 13 13 13 13
13 13 13 13 13 13 13 13 13 13
13 13 13 13 13 13 13 13 13 13
13 13 13 13 13 13 13 13 13 13
13 13 13 13 13 13 13 13 13 13
13 13 13 13 13 13 13 13 13 13
13 13 13 13 13 13 13 13 13 13
13 13 13 13 13 13 13 13 13 13
13 13 13 13 13 13 13 13 13 13
13 13 13 13 13 13 13 13 13 13
13 13 13 13 13 13 13 13 13 13
13 13 13 13 13 13 13 13 13 13
13 13 13 13 13 13 13 13 13 13
13 13 13 13 13 13 13 13 13 13
13 13 13 13 13 13 13 13 13 13
13 13 13 13 13 13 13 13 13 13
13 13 13 13 13 13 13 13 13 13
13 13 13 13 13 13 13 13 13 13
13 13 13 13 13 13 13 13 13 13
13 13 13 13 13 13 13 13 13 13
13 13 13 13 13 13 13 13 13 13
13 13 13 13 13 13 13 13 13 13
13 13 13 13 13 13 13 21 21 21
21 21 21 21 21 21 21 21 21 21
21 21 21 21 21 21 21 21 21 21
21 21 21 21 21 21 21 21 21 21
21 21 21 21 21 21 21 21 21 21
21 21 21 21 21 21 21 21 21 21
21 21 21 21 21 21 21 21 21 21
21 21 21 21 21 21 21 21 21 21
21 21 21 21 21 21 21 21 21 21
21 21 21 21 21 21 21 21 21 21
21 21 21 21 21 21 21 21 21 21
21 21 21 21 21 21 21 21 21 21
21 21 21 21 21 21 21 21 21 21
21 21 21 21 21 21 21 21 21 21
21 21 21 21 21 21 21 21 21 21
21 21 21 21 21 21 21 21 21 21
21 21 21 21 21 21 21 21 21 21
21 21 21 21 21 21 21 21 21 21
21 21 21 21 21 21 21 21 21 21
21 21 21 21 21 21 21 21 21 21
21 21 21 21 21 21 21 21 21 21
21 21 21 21 21 21 21 21 21 21
21 21 21 21 21 21 21 21 21 21
21 21 21 21 21 21 21 21 21 21
21 21 21 21 21 21 21 21 21 21
21 21 21 21 21 21 21 21 21 21
21 21 21 21 21 21 21 21 21 21
21 21 21 21 21 21 21 21 21 21
21 21 21 21 21 21 21 21 21 21
21 21 21 21 21 21 21 21 21 21
21 21 21 21 21 21 21 21 21 21
21 21 21 21 21 21 21 21 21 21
21 21 21 21 21 21 21 21 21 21
21 21 21 21 21 21 21 21 21 21
21 21 21 21 21 21 21 21 21 21
21 21 21 21 21 21 21 21 21 21
21 21 21 21 21 21 21 21 21 21
21 21 21 21 21 21 21 21 21 21
21 21 21 21 21 21 21 21 21 21
21 21 21 21 21 21 21 21 21 21
21 21 21 21 21 21 21 21 21 21
21 21 21 21 21 21 21 21 21 21
21 21 21 21 21 21 21 21 21 21
21 21 21 21 21 21 21 21 21 21
21 21 21 21 21 21 21 21 21 21
21 21 21 21 21 21 21 21 21 21
21 21 21 21 21 21 21 21 21 21
21 21 21 21 21 21 21 21 21 21
21 21 21 21 21 21 21 21 21 21
21 21 21 21 21 21 21 21 21 21
21 21 21 21 21 21 21 21 21 21
21 21 21 21 21 21 21 21 21 21
21 21 21 21 21 21 21 21 21 21
21 21 21 21 21 21 21 21 21 21
21 21 21 21 21 21 21 21 21 21
21 21 21 21 21 21 21 21 21 21
21 21 21 21 21 21 21 21 21 21
21 21 21 21 21 21 21 21 21 21
21 21 21 21 21 21 21 21 21 21
21 21 21 21 21 21 21 21 21 21
21 21 21 21 21 21 21 21 21 21
21 21 21 21 21 21 21 21 21 21
21 21 21 21 21 21 21 21 21 21
21 21 21 21 21 21 21 21 21 21
21 21 21 21 21 21 21 21 21 21
21 21 21 21 21 21 21 21 21 21
21 21 21 21 21 21 21 21 21 21
21 21 21 21 21 21 21 21 21 21
21 21 21 21 21 21 21 21 21 21
21 21 21 21 21 21 21 21 21 21
21 21 21 21 21 21 21 21 21 21
21 21 21 21 21 21 21 21 21 21
21 21 21 21 21 21 21 21 21 21
21 21 21 21 21 21 21 21 21 21
21 21 21 21 21 21 21 21 21 21
21 21 21 21 21 21 21 21 21 21
21 21 21 21 21 21 21 21 21 21
21 21 21 21 21 21 21 21 21 21
21 21 21 21 21 21 21 21 21 21
21 21 21 21 21 21 21 21 21 21
21 21 21 21 21 21 21 21 21 21
21 21 21 21 21 21 21 21 21 21
21 21 21 21 21 21 21 21 21 21
21 21 21 21 21 21 21 21 21 21
21 21 21 21 21 22 22 22 22 22
22 22 22 22 22 22 22 22 22 22
22 22 22 22 22 23 23 23 23 23
23 23 23 23 23 23 23 23 23 23
23 23 23 23 23 24 24 24 24 24
24 24 24 24 24 24 24 24 24 24
24 24 24 24 24 25 25 25 25 25
25 25 25 25 25 25 25 25 25 25
25 25 25 25 25 26 26 26 26 26
26 26 26 26 26 26 26 26 26 26
26 26 26 26 26 27 27 27 27 27
27 27 27 27 27 27 27 27 27 27
27 27 27 27 27 28 28 28 28 28
28 28 28 28 28 28 28 28 28 28
28 28 28 28 28 21 21 21 21 21
21 21 21 21 21 21 21 21 21 21
21 21 21 21 21 21 21 21 21 21
21 21 21 21 21 21 21 21 21 21
21 21 21 21 21 21 21 21 21 21
21 21 21 21 21 21 21 21 21 21
21 21 21 21 21 21 21 21 21 21
21 21 21 21 21 21 21 21 21 21
21 21 21 21 21 21 21 21 21 21
21 21 21 21 21 21 21 21 21 21
21 21 21 21 21 21 21 21 21 21
21 21 21 21 21 21 21 21 21 21
21 21 21 21 21 21 21 21 21 21
21 21 21 21 21 21 21 21 21 21
21 21 21 21 21 21 21 21 21 21
21 21 21 21 21 21 21 21 21 21
21 21 21 21 21 21 21 21 21 21
21 21 21 21 21 21 21 21 21 21
21 21 21 21 21 21 21 21 21 21
21 21 21 21 21 21 21 21 21 21
21 21 21 21 21 21 21 21 21 21
21 21 21 21 21 21 21 21 21 21
21 21 21 21 21 21 21 21 21 21
21 21 21 21 21 21 21 21 21 21
21 21 21 21 21 21 21 21 21 21
21 21 21 21 21 21 21 21 21 21
21 21 21 21 21 21 21 21 21 21
21 21 21 21 21 21 21 21 21 21
21 21 21 21 21 21 21 21 21 21
21 21 21 21 21 21 21 21 21 21
21 21 21 21 21 21 21 21 21 21
21 21 21 21 21 21 21 21 21 21
21 21 21 21 21 21 21 21 21 21
21 21 21 21 21 21 21 21 21 21
21 21 21 21 21 21 21 21 21 21
21 21 21 21 21 21 21 21 21 21
21 21 21 21 21 21 21 21 21 21
21 21 21 21 21 21 21 21 21 21
21 21 21 21 21 21 21 21 21 21
21 21 21 21 21 21 21 21 21 21
21 21 21 21 21 21 21 21 21 21
21 21 21 21 21 21 21 21 21 21
21 21 21 21 21 21 21 21 21 21
21 21 21 21 21 21 21 21 21 21
21 21 21 21 21 21 21 21 21 21
21 21 21 21 21 21 21 21 21 21
21 21 21 21 21 21 21 21 21 21
21 21 21 21 21 21 21 21 21 21
21 21 21 21 21 21 21 21 21 21
21 21 21 21 21 21 21 21 21 21
21 21 21 21 21 21 21 21 21 21
21 21 21 21 21 21 21 21 21 21
21 21 21 21 21 21 21 21 21 21
21 21 21 21 21 21 21 21 21 21
21 21 21 21 21 21 21 21 21 21
21 21 21 21 21 21 21 21 21 21
21 21 21 21 21 21 21 21 21 21
21 21 21 21 21 21 21 21 21 21
21 21 21 21 21 21 21 21 21 21
21 21 21 21 21 21 21 21 21 21
21 21 21 21 21 21 21 21 21 21
21 21 21 21 21 21 21 21 21 21
21 21 21 21 21 21 21 21 21 21
21 21 21 21 21 21 21 21 21 21
21 21 21 21 21 21 21 21 21 21
21 21 21 21 21 21 21 21 21 21
21 21 21 21 21 21 21 21 21 21
21 21 21 21 21 21 21 21 21 21
21 21 21 21 21 21 21 21 21 21
21 21 21 21 21 21 21 21 21 21
21 21 21 21 21 21 21 21 21 21
21 21 21 21 21 21 21 21 21 21
21 21 21 21 21 21 21 21 21 21
21 21 21 21 21 21 21 21 21 21
21 21 21 21 21 21 21 21 21 21
21 21 21 21 21 21 21 21 21 21
21 21 21 21 21 21 21 21 21 21
21 21 21 21 21 21 21 21 21 21
21 21 21 21 21 21 21 21 21 21
21 21 21 21 21 21 21 21 21 21
21 29 29 29 29 29 29 29 29 29
29 29 29 29 29 29 29 29 29 29
29 29 29 29 29 29 29 29 29 29
29 29 29 29 29 29 29 29 29 29
29 29 29 29 29 29 29 29 29 29
29 29 29 29 29 29 29 29 29 29
29 29 29 29 29 29 29 29 29 29
29 29 29 29 29 29 29 29 29 29
29 29 29 29 29 29 29 29 29 29
29 29 29 29 29 29 29 29 29 29
29 29 29 29 29 29 29 29 29 29
29 29 29 29 29 29 29 29 29 29
29 29 29 29 29 29 29 29 29 29
29 29 29 29 29 29 29 29 29 29
29 29 29 29 29 29 29 29 29 29
29 29 29 29 29 29 29 29 29 29
29 29 29 29 29 29 29 29 29 29
29 29 29 29 29 29 29 29 29 29
29 29 29 29 29 29 29 29 29 29
29 29 29 29 29 29 29 29 29 29
29 29 29 29 29 29 29 29 29 29
29 29 29 29 29 29 29 29 29 29
29 29 29 29 29 29 29 29 29 29
29 29 29 29 29 29 29 29 29 29
29 29 29 29 29 29 29 29 29 29
29 29 29 29 29 29 29 29 29 29
29 29 29 29 29 29 29 29 29 29
29 29 29 29 29 29 29 29 29 29
29 29 29 29 29 29 29 29 29 29
29 29 29 29 29 29 29 29 29 29
29 29 29 29 29 29 29 29 29 29
29 29 29 29 29 29 29 29 29 29
29 29 29 29 29 29 29 29 29 29
29 29 29 29 29 29 29 29 29 29
29 29 29 29 29 29 29 29 29 29
29 29 29 29 29 29 29 29 29 29
29 29 29 29 29 29 29 29 29 29
29 29 29 29 29 29 29 29 29 29
29 29 29 29 29 29 29 29 29 29
29 29 29 29 29 29 29 29 29 29
29 29 29 29 29 29 29 29 29 29
29 29 29 29 29 29 29 29 29 29
29 29 29 29 29 29 29 29 29 29
29 29 29 29 29 29 29 29 29 29
29 29 29 29 29 29 29 29 29 29
29 29 29 29 29 29 29 29 29 29
29 29 29 29 29 29 29 29 29 29
29 29 29 29 29 29 29 29 29 29
29 29 29 29 29 29 29 29 29 29
29 29 29 29 29 29 29 29 29 29
29 29 29 29 29 29 29 29 29 29
29 29 29 29 29 29 29 29 29 29
29 29 29 29 29 29 29 29 29 29
29 29 29 29 29 29 29 29 29 29
29 29 29 29 29 29 29 29 29 29
29 29 29 29 29 29 29 29 29 29
29 29 29 29 29 29 29 29 29 29
29 29 29 29 29 29 29 29 29 29
29 29 29 29 29 29 29 29 29 29
29 29 29 29 29 29 29 29 29 29
29 29 29 29 29 29 29 29 29 29
29 29 29 29 29 29 29 29 29 29
29 29 29 29 29 29 29 29 29 29
29 29 29 29 29 29 29 29 29 29
29 29 29 29 29 29 29 29 29 29
29 29 29 29 29 29 29 29 29 29
29 29 29 29 29 29 29 29 29 29
29 29 29 29 29 29 29 29 29 29
29 29 29 29 29 29 29 29 29 29
29 29 29 29 29 29 29 29 29 29
29 29 29 29 29 29 29 29 29 29
29 29 29 29 29 29 29 29 29 29
29 29 29 29 29 29 29 29 29 29
29 29 29 29 29 29 29 29 29 29
29 29 29 29 29 29 29 29 29 29
29 29 29 29 29 29 29 29 29 29
29 29 29 29 29 29 29 29 29 29
29 29 29 29 29 29 29 29 29 29
29 29 29 29 29 29 29 29 29 29
29 29 29 29 29 29 29 29 29 29
29 29 29 29 29 29 29 29 29 29
29 29 29 29 29 29 29 29 29 29
29 29 29 29 29 29 29 29 29 29
29 29 29 29 29 29 29 29 29 30
30 30 30 30 30 30 30 30 30 30
30 30 30 30 30 30 30 30 30 31
31 31 31 31 31 31 31 31 31 31
31 31 31 31 31 31 31 31 31 32
32 32 32 32 32 32 32 32 32 32
32 32 32 32 32 32 32 32 32 33
33 33 33 33 33 33 33 33 33 33
33 33 33 33 33 33 33 33 33 34
34 34 34 34 34 34 34 34 34 34
34 34 34 34 34 34 34 34 34 35
35 35 35 35 35 35 35 35 35 35
35 35 35 35 35 35 35 35 35 36
36 36 36 36 36 36 36 36 36 36
36 36 36 36 36 36 36 36 36 29
29 29 29 29 29 29 29 29 29 29
29 29 29 29 29 29 29 29 29 29
29 29 29 29 29 29 29 29 29 29
29 29 29 29 29 29 29 29 29 29
29 29 29 29 29 29 29 29 29 29
29 29 29 29 29 29 29 29 29 29
29 29 29 29 29 29 29 29 29 29
29 29 29 29 29 29 29 29 29 29
29 29 29 29 29 29 29 29 29 29
29 29 29 29 29 29 29 29 29 29
29 29 29 29 29 29 29 29 29 29
29 29 29 29 29 29 29 29 29 29
29 29 29 29 29 29 29 29 29 29
29 29 29 29 29 29 29 29 29 29
29 29 29 29 29 29 29 29 29 29
29 29 29 29 29 29 29 29 29 29
29 29 29 29 29 29 29 29 29 29
29 29 29 29 29 29 29 29 29 29
29 29 29 29 29 29 29 29 29 29
29 29 29 29 29 29 29 29 29 29
29 29 29 29 29 29 29 29 29 29
29 29 29 29 29 29 29 29 29 29
29 29 29 29 29 29 29 29 29 29
29 29 29 29 29 29 29 29 29 29
29 29 29 29 29 29 29 29 29 29
29 29 29 29 29 29 29 29 29 29
29 29 29 29 29 29 29 29 29 29
29 29 29 29 29 29 29 29 29 29
29 29 29 29 29 29 29 29 29 29
29 29 29 29 29 29 29 29 29 29
29 29 29 29 29 29 29 29 29 29