# vtk DataFile Version 2.0
sampleSurface
ASCII
DATASET POLYDATA
POINTS 4081 float
2.22087 0.256695 0.397243 2.22087 0.195257 0.431972 2.22087 0.167802 0.452459 2.21662 0.272328
0.426709 2.21661 0.212652 0.460424 2.21661 0.194293 0.474123 2.22087 0.324085 0.37373
2.21661 0.33777 0.403859 2.22087 0.35845 0.366269 2.23863 0.235801 0.357862 2.23863
0.168793 0.395757 2.22087 0.118138 0.500634 2.21661 0.360749 0.39887 2.21662 0.146073
0.52092 2.23863 0.134988 0.420982 2.23863 0.309315 0.332228 2.22287 0.281621 0.444223
2.22285 0.222568 0.477568 2.22285 0.210374 0.486666 2.20515 0.251404 0.552732 2.24461
0.244227 0.373742 2.2446 0.180085 0.410017 2.22285 0.346362 0.421601 2.23863 0.351629
0.323041 2.23863 0.0808029 0.473521 2.22087 0.430128 0.359586 2.22285 0.361625 0.418287
2.22087 0.0791072 0.556531 2.2446 0.147725 0.434163 2.22287 0.162677 0.532978 2.21662
0.430363 0.392396 2.21661 0.108153 0.575198 2.2446 0.314596 0.349205 2.20515 0.393214
0.491936 2.21661 0.0980514 0.594893 2.20515 0.206249 0.611367 2.22087 0.0640005 0.585985
2.2446 0.3551 0.340411 2.24461 0.0958581 0.484454 2.23863 0.429813 0.315737 2.22287
0.430503 0.411897 2.23863 0.0382422 0.534501 2.22285 0.125145 0.586672 2.22285 0.118435
0.599754 2.22087 0.501895 0.365393 2.21661 0.500064 0.398019 2.20515 0.471059 0.488508
2.27171 0.192232 0.360695 2.24461 0.42994 0.333419 2.2446 0.055118 0.542826 2.23863
0.0196413 0.570768 2.27171 0.265926 0.327991 2.27171 0.126483 0.405568 2.2449 0.200792
0.512162 2.21661 0.523112 0.402727 2.21662 0.0766021 0.656369 2.27171 0.308898 0.314934
2.22087 0.0418984 0.64928 2.27171 0.0939042 0.434543 2.22087 0.536364 0.372434 2.27627
0.202521 0.376454 2.22285 0.499466 0.417445 2.2446 0.0373127 0.577541 2.23863 0.508096
0.322085 2.24507 0.385039 0.430985 2.27627 0.273063 0.345149 2.27627 0.139585 0.419408
2.24821 0.175668 0.542413 2.22285 0.514775 0.420573 2.22287 0.0972297 0.660583 2.24913
0.304059 0.486515 2.27627 0.314197 0.332651 2.27627 0.108399 0.447143 2.24505 0.149227
0.579638 2.27171 0.389227 0.300839 2.24913 0.192951 0.554964 2.27171 0.04288 0.493524
2.24913 0.311854 0.501209 2.2446 0.504874 0.339496 2.23863 -0.00448321 0.639806 2.24821
0.430612 0.427155 2.23863 0.550538 0.330755 2.27627 0.39109 0.319159 2.21661 0.0679497
0.720459 2.27627 0.0595573 0.503601 2.21662 0.588875 0.424776 2.24913 0.430758 0.447454
2.22087 0.0330063 0.715274 2.24486 0.47438 0.426627 2.20515 0.170092 0.747775 2.24461
0.0142202 0.643626 2.22087 0.604085 0.395121 2.2446 0.545501 0.347795 2.21661 0.0681057
0.74225 2.27171 0.470995 0.30089 2.22287 0.579835 0.442402 2.22285 0.088652 0.723992
2.27171 0.00473389 0.560286 2.22087 0.0332398 0.747862 2.22285 0.0887557 0.738465 2.2727
0.183932 0.548414 2.27627 0.46936 0.319207 2.27627 0.0230428 0.567508 2.27316 0.308431
0.494755 2.27448 0.309489 0.496751 2.23863 -0.0141663 0.711793 2.27171 -0.0109999 0.59944
2.27171 0.515848 0.306337 2.23863 0.624412 0.355488 2.24913 0.147039 0.670758 2.28546
0.216915 0.516046 2.24913 0.164344 0.674293 2.2727 0.430682 0.436861 2.2166 0.649031
0.457759 2.2446 0.0049511 0.712534 2.27627 0.00798206 0.604987 2.27627 0.512295 0.324421
2.20515 0.615754 0.558645 2.24461 0.616215 0.37147 2.32326 0.188949 0.355667 2.22087
0.666016 0.429097 2.20515 0.190898 0.817105 2.28565 0.380551 0.445743 2.21662 0.0776764
0.806229 2.32326 0.263644 0.322519 2.32326 0.122308 0.401149 2.22285 0.639361 0.475022
2.23863 -0.0138788 0.751918 2.2166 0.667583 0.471232 2.32561 0.199379 0.371641 2.32326
0.307213 0.309281 2.32326 0.089276 0.430526 2.22287 0.0982416 0.801763 2.22087 0.0430774
0.813741 2.32561 0.270879 0.339911 2.32561 0.135588 0.415178 2.28564 0.159061 0.592028
2.22285 0.651684 0.483971 2.2446 0.00522634 0.750944 2.24913 0.558006 0.484964 2.24913
0.550421 0.499751 2.32561 0.312584 0.327239 2.27171 -0.0292484 0.673016 2.22087 0.693762
0.449246 2.32561 0.103969 0.443299 2.27171 0.594848 0.32581 2.24485 0.103958 0.758447
2.32326 0.388633 0.294994 2.27627 -0.00948588 0.675416 2.32326 0.0375588 0.490308 2.23863
0.691958 0.392561 2.27317 0.156744 0.67274 2.27627 0.587915 0.343062 2.28544 0.481022
0.440783 2.27448 0.159094 0.67322 2.32561 0.390521 0.313563 2.32561 0.0544636 0.500523
2.2446 0.680872 0.406958 2.21661 0.100005 0.867437 2.20515 0.665057 0.614361 2.23863
-0.00316434 0.823781 2.2579 0.365043 0.679938 2.21662 0.716471 0.517436 2.2579 0.398625
0.664756 2.22285 0.120317 0.862328 2.24821 0.114332 0.79827 2.22087 0.0660849 0.876761
2.24913 0.135738 0.793622 2.2579 0.432206 0.649574 2.32326 0.471511 0.295045 2.32326
-0.0011052 0.557977 2.24461 0.0154826 0.819733 2.22287 0.700041 0.529696 2.21661 0.110388
0.887007 2.23863 0.726122 0.417372 2.2579 0.37693 0.68857 2.27316 0.553752 0.493257
2.2579 0.404618 0.676053 2.27171 -0.0322364 0.748445 2.22285 0.127214 0.875327 2.27448
0.552722 0.495265 2.2579 0.432306 0.663535 2.32561 0.469854 0.313612 2.32561 0.0174534
0.565298 2.22087 0.744112 0.49681 2.2446 0.713575 0.430707 2.2579 0.356964 0.71364
2.27171 0.668494 0.358606 2.27627 -0.012346 0.747619 2.24522 0.663715 0.516539 2.2579
0.370269 0.716358 2.32326 -0.0170578 0.597675 2.27627 0.658412 0.374454 2.32326 0.516987
0.300568 2.2579 0.466003 0.664345 2.24507 0.128315 0.837914 2.22087 0.0816124 0.906028
2.2579 0.460172 0.675714 2.32561 0.00218337 0.603298 2.32561 0.513385 0.318899 2.2579
0.348885 0.747342 2.2579 0.363607 0.744145 2.27171 -0.0280086 0.790024 2.28544 0.117462
0.74934 2.37481 0.222216 0.332255 2.37481 0.150599 0.372758 2.27627 -0.0082992 0.787419
2.27171 0.706345 0.381478 2.32237 -0.127406 0.63005 2.23863 0.0219476 0.892518 2.2579
0.499799 0.679115 2.2579 0.488037 0.687892 2.2166 0.755166 0.571246 2.20515 0.286012
0.931096 2.24913 0.670085 0.552049 2.37481 0.114439 0.39974 2.32443 -0.105239 0.632341
2.27268 0.124548 0.796052 2.37496 0.231222 0.349231 2.37496 0.162669 0.388001 2.24821
0.687186 0.539288 2.21662 0.149083 0.940817 2.27627 0.694644 0.396348 2.37481 0.300786
0.30486 2.2446 0.0395203 0.885529 2.22285 0.73834 0.582927 2.37496 0.128056 0.413829
2.22287 0.165513 0.928557 2.2579 0.382989 0.766278 2.2579 0.372392 0.774186 2.37496
0.306432 0.323007 2.23863 0.781055 0.469244 2.37481 0.346047 0.295032 2.2166 0.765548
0.590816 2.32326 -0.0355541 0.67225 2.37481 0.0565265 0.455891 2.22285 0.745236 0.595925
2.22087 0.783941 0.552225 2.2579 0.495096 0.715595 2.2446 0.766158 0.48036 2.32326
0.59706 0.320306 2.37496 0.349757 0.3136 2.32561 -0.0155218 0.674683 2.37496 0.0726201
0.467578 2.2579 0.508361 0.712715 2.32561 0.590033 0.337793 2.22087 0.121441 0.961443
2.23863 0.0410667 0.928555 2.2579 0.402371 0.788411 2.2446 0.0578217 0.920024 2.24475
0.721116 0.579899 2.24913 0.218969 0.888668 2.2579 0.395899 0.801029 2.2579 0.502156
0.743299 2.27171 -0.00986725 0.863622 2.37481 0.429609 0.287224 2.2579 0.4332 0.788223
2.20515 0.691491 0.752761 2.24913 0.205186 0.898953 2.22087 0.799469 0.581492 2.20515
0.357874 0.958937 2.37481 0.0110395 0.521066 2.2857 0.648337 0.521864 2.27627 0.00906635
0.857869 2.2579 0.483093 0.765667 2.37496 0.429745 0.306126 2.37496 0.0290786 0.529966
2.2579 0.516922 0.746316 2.27268 0.679025 0.545378 2.21661 0.19797 0.987021 2.2579
0.43329 0.800801 2.2579 0.46403 0.788034 2.2994 0.394579 0.701387 2.22285 0.213869
0.974283 2.27171 0.768368 0.430664 2.2994 0.413517 0.692826 2.2579 0.493802 0.773444
2.2994 0.432455 0.684264 2.27627 0.754014 0.44343 2.3188 -0.105239 0.748103 2.28565
0.14489 0.838701 2.37481 -0.00885702 0.559859 2.2994 0.390023 0.720393 2.22285 0.226192
0.983232 2.21662 0.787877 0.652025 2.32326 -0.0385826 0.748704 2.2579 0.470682 0.800572
2.32237 -0.123207 0.743127 2.22287 0.767312 0.65649 2.21661 0.216523 1.00049 2.26298
-0.0939774 0.912004 2.37496 0.0100334 0.567099 2.26307 -0.113459 0.910126 2.32561 -0.0184209
0.747867 2.2994 0.451514 0.692594 2.23863 0.824487 0.529699 2.32326 0.671706 0.353547
2.22087 0.171791 1.00901 2.2446 0.807732 0.538229 2.2994 0.385467 0.739399 2.32561
0.661486 0.369612 2.37481 0.513275 0.294011 2.23863 0.0844981 0.98901 2.20515 0.675722
0.823213 2.37496 0.509832 0.312622 2.24913 0.700399 0.671018 2.2994 0.470573 0.700923
2.24461 0.0993953 0.977894 2.35003 0.296743 0.630338 2.32237 -0.466587 0.63005 2.27316
0.212916 0.893185 2.27448 0.214788 0.891789 2.35003 0.364187 0.599847 2.2994 0.398723
0.754537 2.32237 -0.474882 0.63005 2.24913 0.717653 0.667272 2.22087 0.822476 0.644512
2.32326 -0.034296 0.79086 2.32561 -0.0143178 0.788219 2.22087 0.199537 1.02916 2.27171
0.0228947 0.932778 2.2994 0.475402 0.719872 2.35003 0.431631 0.569356 2.27627 0.0404269
0.924067 2.37481 -0.0346417 0.633645 2.23863 0.843606 0.565735 2.20515 0.501415 0.963928
2.32326 0.710083 0.376736 2.37481 0.558673 0.303284 2.37496 -0.0146486 0.637729 2.2446
0.826033 0.572724 2.2994 0.41198 0.769675 2.32561 0.698222 0.39181 2.42658 0.188289
0.354655 2.37496 0.553288 0.321499 2.22287 0.285718 1.01585 2.42451 0.198747 0.370673
2.21662 0.276678 1.03348 2.20515 0.571349 0.93218 2.42658 0.263176 0.321422 2.2166
0.797448 0.716004 2.22285 0.776798 0.719788 2.42658 0.121476 0.400255 2.2994 0.48023
0.73882 2.42451 0.270431 0.338861 2.2994 0.433066 0.769547 2.42451 0.134791 0.414322
2.27171 0.819307 0.489708 2.2994 0.467192 0.754119 2.24488 0.25418 0.985598 2.27627
0.802773 0.499949 2.42658 0.306884 0.308142 2.3805 -0.105239 0.632341 2.42658 0.0883389
0.429725 2.42451 0.312268 0.326149 2.28545 0.712525 0.593363 2.22285 0.776901 0.734262
2.42451 0.103072 0.442532 2.2994 0.454153 0.769418 2.35003 0.280516 0.698024 2.2166
0.797604 0.737794 2.27171 0.0462468 0.968546 2.27627 0.0627802 0.958305 2.23863 0.139431
1.04088 2.27316 0.707977 0.669373 2.2446 0.151979 1.02755 2.24913 0.302201 0.983714
2.27448 0.705634 0.669882 2.42658 0.388514 0.293818 2.32237 -0.431047 0.740692 2.42451
0.390407 0.312438 2.42658 0.0364884 0.489661 2.22087 0.832314 0.710392 2.22087 0.261468
1.06313 2.35003 0.499507 0.59902 2.42451 0.0534391 0.499904 2.32237 -0.43816 0.740636
2.22285 0.350778 1.03768 2.24821 0.292791 1.00206 2.21661 0.342441 1.05553 2.37481
[...]
CELL_DATA 8006
FIELD attributes 1
zone 1 8006 float
0 0 0 0 0 0 0 0 0 0 0
0 0 0 0 0 0 0 0 0 0
0 0 0 0 0 0 0 0 0 0
0 0 0 0 0 0 0 0 0 0
0 0 0 0 0 0 0 0 0 0
0 0 0 0 0 0 0 0 0 0
0 0 0 0 0 0 0 0 0 0
0 0 0 0 0 0 0 0 0 0
0 0 0 0 0 0 0 0 0 0
0 0 0 0 0 0 0 0 0 0
0 0 0 0 0 0 0 0 0 0
0 0 0 0 0 0 0 0 0 0
0 0 0 0 0 0 0 0 0 0
0 0 0 0 0 0 0 0 0 0
0 0 0 0 0 0 0 0 0 0
0 0 0 0 0 0 0 0 0 0
0 0 0 0 0 0 0 0 0 0
0 0 0 0 0 0 0 0 0 0
0 0 0 0 0 0 0 0 0 0
0 0 0 0 0 0 0 0 0 0
0 0 0 0 0 0 0 0 0 0
0 0 0 0 0 0 0 0 0 0
0 0 0 0 0 0 0 0 0 0
0 0 0 0 0 0 0 0 0 0
0 0 0 0 0 0 0 0 0 0
0 0 0 0 0 0 0 0 0 0
0 0 0 0 0 0 0 0 0 0
0 0 0 0 0 0 0 0 0 0
0 0 0 0 0 0 0 0 0 0
0 0 0 0 0 0 0 0 0 0
0 0 0 0 0 0 0 0 0 0
0 0 0 0 0 0 0 0 0 0
0 0 0 0 0 0 0 0 0 0
0 0 0 0 0 0 0 0 0 0
0 0 0 0 0 0 0 0 0 0
0 0 0 0 0 0 0 0 0 0
0 0 0 0 0 0 0 0 0 0
0 0 0 0 0 0 0 0 0 0
0 0 0 0 0 0 0 0 0 0
0 0 0 0 0 0 0 0 0 0
0 0 0 0 0 0 0 0 0 0
0 0 1 1 1 1 1 1 1 1
1 1 2 2 2 2 2 2 2 2
2 2 0 0 0 0 0 0 0 0
0 0 0 0 0 0 0 0 0 0
0 0 0 0 0 0 0 0 0 0
0 0 0 0 0 0 0 0 0 0
0 0 0 0 0 0 0 0 0 0
0 0 0 0 0 0 0 0 0 0
0 0 0 0 0 0 0 0 0 0
0 0 0 0 0 0 0 0 0 0
0 0 0 0 0 0 0 0 0 0
0 0 0 0 0 0 0 0 0 0
0 0 0 0 0 0 0 0 0 0
0 0 0 0 0 0 0 0 0 0
0 0 0 0 0 0 0 0 0 0
0 0 0 0 0 0 0 0 0 0
0 0 0 0 0 0 0 0 0 0
0 0 0 0 0 0 0 0 0 0
0 0 0 0 0 0 0 0 0 0
0 0 0 0 0 0 0 0 0 0
0 0 0 0 0 0 0 0 0 0
0 0 0 0 0 0 0 0 0 0
0 0 0 0 0 0 0 0 0 0
0 0 0 0 0 0 0 0 0 0
0 0 0 0 0 0 0 0 0 0
0 0 0 0 0 0 0 0 0 0
0 0 0 0 0 0 0 0 0 0
0 0 0 0 0 0 0 0 0 0
0 0 0 0 0 0 0 0 0 0
0 0 0 0 0 0 0 0 0 0
0 0 0 0 0 0 0 0 0 0
0 0 0 0 0 0 0 0 0 0
0 0 0 0 0 0 0 0 0 0
0 0 0 0 0 0 0 0 0 0
0 0 0 0 0 0 0 0 0 0
0 0 0 0 0 0 0 0 0 0
0 0 0 0 0 0 0 0 0 0
0 0 0 0 0 0 0 0 0 0
0 0 0 0 0 0 0 0 0 0
0 0 0 0 0 0 0 0 0 0
0 0 0 0 0 0 0 0 0 0
0 0 0 0 0 0 0 0 0 0
0 0 0 0 0 0 0 0 0 0
0 0 0 0 0 0 0 0 0 0
0 0 0 0 0 0 0 0 0 0
3 3 3 3 3 3 3 3 3 3
4 4 4 4 4 4 4 4 4 4
0 0 0 0 0 0 0 0 0 0
0 0 0 0 0 0 0 0 0 0
0 0 0 0 0 0 0 0 0 5
5 5 5 5 5 5 5 5 5 5
5 5 5 5 5 5 5 5 5 5
5 5 5 5 5 5 5 5 5 5
5 5 5 5 5 5 5 5 5 5
5 5 5 5 5 5 5 5 5 5
5 5 5 5 5 5 5 5 5 5
5 5 5 5 5 5 5 5 5 5
5 5 5 5 5 5 5 5 5 5
5 5 5 5 5 5 5 5 5 5
5 5 5 5 5 5 5 5 5 5
5 5 5 5 5 5 5 5 5 5
5 5 5 5 5 5 5 5 5 5
5 5 5 5 5 5 5 5 5 5
5 5 5 5 5 5 5 5 5 5
5 5 5 5 5 5 5 5 5 5
5 5 5 5 5 5 5 5 5 5
5 5 5 5 5 5 5 5 5 5
5 5 5 5 5 5 5 5 5 5
5 5 5 5 5 5 5 5 5 5
5 5 5 5 5 5 5 5 5 5
5 5 5 5 5 5 5 5 5 5
5 5 5 5 5 5 5 5 5 5
5 5 5 5 5 5 5 5 5 5
5 5 5 5 5 5 5 5 5 5
5 5 5 5 5 5 5 5 5 5
5 5 5 5 5 5 5 5 5 5
5 5 5 5 5 5 5 5 5 5
5 5 5 5 5 5 5 5 5 5
5 5 5 5 5 5 5 5 5 5
5 5 5 5 5 5 5 5 5 5
5 5 5 5 5 5 5 5 5 5
5 5 5 5 5 5 5 5 5 5
5 5 5 5 5 5 5 5 5 5
5 5 5 5 5 5 5 5 5 5
5 5 5 5 5 5 5 5 5 5
5 5 5 5 5 5 5 5 5 5
5 5 5 5 5 5 5 5 5 5
5 5 5 5 5 5 5 5 5 5
5 5 5 5 5 5 5 5 5 5
5 5 5 5 5 5 5 5 5 5
5 5 5 5 5 5 5 5 5 5
5 5 5 5 5 5 5 5 5 5
5 5 5 5 5 5 5 5 5 5
5 5 5 5 5 5 5 5 5 5
5 5 5 5 5 5 5 5 5 5
5 5 5 5 5 5 5 5 5 5
5 5 5 5 5 5 5 5 5 5
5 5 5 5 5 5 5 5 5 5
5 5 5 5 5 5 5 5 5 5
5 5 5 5 5 5 5 5 5 5
5 5 5 5 5 5 5 5 5 5
5 5 5 5 5 5 5 5 5 5
5 5 5 5 5 5 5 5 5 5
5 5 5 5 5 5 5 5 5 5
5 5 5 5 5 5 5 5 5 5
5 5 5 5 5 5 5 5 5 5
5 5 5 5 5 5 5 5 5 5
5 5 5 5 5 5 5 5 5 5
5 5 5 5 5 5 5 5 5 5
5 5 5 5 5 5 5 5 5 5
5 5 5 5 5 5 5 5 5 5
5 5 5 5 5 5 5 5 5 5
5 5 5 5 5 5 5 5 5 5
5 5 5 5 5 5 5 5 5 5
5 5 5 5 5 5 5 5 5 5
5 5 5 5 5 5 5 5 5 5
5 5 5 5 5 5 5 5 5 5
5 5 5 5 5 5 5 5 5 5
5 5 5 5 5 5 5 5 5 5
5 5 5 5 5 5 5 5 5 5
5 5 5 5 5 5 5 5 5 5
5 5 5 5 5 5 5 5 5 5
5 5 5 5 5 5 5 5 5 5
5 5 5 5 5 5 5 5 5 5
5 5 5 5 5 5 5 5 5 5
5 5 5 5 5 5 5 5 5 5
5 5 5 5 5 5 5 5 5 5
5 5 5 5 5 5 5 5 5 5
5 5 5 5 5 5 5 5 5 5
5 5 5 5 5 5 5 5 5 5
5 5 5 5 5 5 5 5 5 5
5 5 5 5 5 5 5 5 5 5
5 5 5 5 5 5 5 5 5 5
5 5 5 5 5 5 5 6 6 6
6 6 6 6 6 6 6 6 6 6
6 6 6 6 6 6 6 7 7 7
7 7 7 7 7 7 7 7 7 7
7 7 7 7 7 7 7 8 8 8
8 8 8 8 8 8 8 8 8 8
8 8 8 8 8 8 8 9 9 9
9 9 9 9 9 9 9 9 9 9
9 9 9 9 9 9 9 10 10 10
10 10 10 10 10 10 10 10 10 10
10 10 10 10 10 10 10 11 11 11
11 11 11 11 11 11 11 11 11 11
11 11 11 11 11 11 11 12 12 12
12 12 12 12 12 12 12 12 12 12
12 12 12 12 12 12 12 5 5 5
5 5 5 5 5 5 5 5 5 5
5 5 5 5 5 5 5 5 5 5
5 5 5 5 5 5 5 5 5 5
5 5 5 5 5 5 5 5 5 5
5 5 5 5 5 5 5 5 5 5
5 5 5 5 5 5 5 5 5 5
5 5 5 5 5 5 5 5 5 5
5 5 5 5 5 5 5 5 5 5
5 5 5 5 5 5 5 5 5 5
5 5 5 5 5 5 5 5 5 5
5 5 5 5 5 5 5 5 5 5
5 5 5 5 5 5 5 5 5 5
5 5 5 5 5 5 5 5 5 5
5 5 5 5 5 5 5 5 5 5
5 5 5 5 5 5 5 5 5 5
5 5 5 5 5 5 5 5 5 5
5 5 5 5 5 5 5 5 5 5
5 5 5 5 5 5 5 5 5 5
5 5 5 5 5 5 5 5 5 5
5 5 5 5 5 5 5 5 5 5
5 5 5 5 5 5 5 5 5 5
5 5 5 5 5 5 5 5 5 5
5 5 5 5 5 5 5 5 5 5
5 5 5 5 5 5 5 5 5 5
5 5 5 5 5 5 5 5 5 5
5 5 5 5 5 5 5 5 5 5
5 5 5 5 5 5 5 5 5 5
5 5 5 5 5 5 5 5 5 5
5 5 5 5 5 5 5 5 5 5
5 5 5 5 5 5 5 5 5 5
5 5 5 5 5 5 5 5 5 5
5 5 5 5 5 5 5 5 5 5
5 5 5 5 5 5 5 5 5 5
5 5 5 5 5 5 5 5 5 5
5 5 5 5 5 5 5 5 5 5
5 5 5 5 5 5 5 5 5 5
5 5 5 5 5 5 5 5 5 5
5 5 5 5 5 5 5 5 5 5
5 5 5 5 5 5 5 5 5 5
5 5 5 5 5 5 5 5 5 5
5 5 5 5 5 5 5 5 5 5
5 5 5 5 5 5 5 5 5 5
5 5 5 5 5 5 5 5 5 5
5 5 5 5 5 5 5 5 5 5
5 5 5 5 5 5 5 5 5 5
5 5 5 5 5 5 5 5 5 5
5 5 5 5 5 5 5 5 5 5
5 5 5 5 5 5 5 5 5 5
5 5 5 5 5 5 5 5 5 5
5 5 5 5 5 5 5 5 5 5
5 5 5 5 5 5 5 5 5 5
5 5 5 5 5 5 5 5 5 5
5 5 5 5 5 5 5 5 5 5
5 5 5 5 5 5 5 5 5 5
5 5 5 5 5 5 5 5 5 5
5 5 5 5 5 5 5 5 5 5
5 5 5 5 5 5 5 5 5 5
5 5 5 5 5 5 5 5 5 5
5 5 5 5 5 5 5 5 5 5
5 5 5 5 5 5 5 5 5 5
5 5 5 5 5 5 5 5 5 5
5 5 5 5 5 5 5 5 5 5
5 5 5 5 5 5 5 5 5 5
5 5 5 5 5 5 5 5 5 5
5 5 5 5 5 5 5 5 5 5
5 5 5 5 5 5 5 5 5 5
5 5 5 5 5 5 5 5 5 5
5 5 5 5 5 5 5 5 5 5
5 5 5 5 5 5 5 5 5 5
5 5 5 5 5 5 5 5 5 5
5 5 5 5 5 5 5 5 5 5
5 5 5 5 5 5 5 5 5 5
5 5 5 5 5 5 5 5 5 5
5 5 5 5 5 5 5 5 5 5
5 5 5 5 5 5 5 5 5 5
5 5 5 5 5 5 5 5 5 5
5 5 5 5 5 5 5 5 5 5
5 5 5 5 5 5 5 5 5 5
5 5 5 5 5 5 5 5 5 5
5 5 5 13 13 13 13 13 13 13
13 13 13 13 13 13 13 13 13 13
13 13 13 13 13 13 13 13 13 13
13 13 13 13 13 13 13 13 13 13
13 13 13 13 13 13 13 13 13 13
13 13 13 13 13 13 13 13 13 13
13 13 13 13 13 13 13 13 13 13
13 13 13 13 13 13 13 13 13 13
13 13 13 13 13 13 13 13 13 13
13 13 13 13 13 13 13 13 13 13
13 13 13 13 13 13 13 13 13 13
13 13 13 13 13 13 13 13 13 13
13 13 13 13 13 13 13 13 13 13
13 13 13 13 13 13 13 13 13 13
13 13 13 13 13 13 13 13 13 13
13 13 13 13 13 13 13 13 13 13
13 13 13 13 13 13 13 13 13 13
13 13 13 13 13 13 13 13 13 13
13 13 13 13 13 13 13 13 13 13
13 13 13 13 13 13 13 13 13 13
13 13 13 13 13 13 13 13 13 13
13 13 13 13 13 13 13 13 13 13
13 13 13 13 13 13 13 13 13 13
13 13 13 13 13 13 13 13 13 13
13 13 13 13 13 13 13 13 13 13
13 13 13 13 13 13 13 13 13 13
13 13 13 13 13 13 13 13 13 13
13 13 13 13 13 13 13 13 13 13
13 13 13 13 13 13 13 13 13 13
13 13 13 13 13 13 13 13 13 13
13 13 13 13 13 13 13 13 13 13
13 13 13 13 13 13 13 13 13 13
13 13 13 13 13 13 13 13 13 13
13 13 13 13 13 13 13 13 13 13
13 13 13 13 13 13 13 13 13 13
13 13 13 13 13 13 13 13 13 13
13 13 13 13 13 13 13 13 13 13
13 13 13 13 13 13 13 13 13 13
13 13 13 13 13 13 13 13 13 13
13 13 13 13 13 13 13 13 13 13
13 13 13 13 13 13 13 13 13 13
13 13 13 13 13 13 13 13 13 13
13 13 13 13 13 13 13 13 13 13
13 13 13 13 13 13 13 13 13 13
13 13 13 13 13 13 13 13 13 13
13 13 13 13 13 13 13 13 13 13
13 13 13 13 13 13 13 13 13 13
13 13 13 13 13 13 13 13 13 13
13 13 13 13 13 13 13 13 13 13
13 13 13 13 13 13 13 13 13 13
13 13 13 13 13 13 13 13 13 13
13 13 13 13 13 13 13 13 13 13
13 13 13 13 13 13 13 13 13 13
13 13 13 13 13 13 13 13 13 13
13 13 13 13 13 13 13 13 13 13
13 13 13 13 13 13 13 13 13 13
13 13 13 13 13 13 13 13 13 13
13 13 13 13 13 13 13 13 13 13
13 13 13 13 13 13 13 13 13 13
13 13 13 13 13 13 13 13 13 13
13 13 13 13 13 13 13 13 13 13
13 13 13 13 13 13 13 13 13 13
13 13 13 13 13 13 13 13 13 13
13 13 13 13 13 13 13 13 13 13
13 13 13 13 13 13 13 13 13 13
13 13 13 13 13 13 13 13 13 13
13 13 13 13 13 13 13 13 13 13
13 13 13 13 13 13 13 13 13 13
13 13 13 13 13 13 13 13 13 13
13 13 13 13 13 13 13 13 13 13
13 13 13 13 13 13 13 13 13 13
13 13 13 13 13 13 13 13 13 13
13 13 13 13 13 13 13 13 13 13
13 13 13 13 13 13 13 13 13 13
13 13 13 13 13 13 13 13 13 13
13 13 13 13 13 13 13 13 13 13
13 13 13 13 13 13 13 13 13 13
13 13 13 13 13 13 13 13 13 13
13 13 13 13 13 13 13 13 13 13
13 13 13 13 13 13 13 13 13 13
13 13 13 13 13 13 13 13 13 13
13 13 13 13 13 13 13 13 13 13
13 13 13 13 13 13 13 13 13 13
13 13 13 13 13 13 13 13 13 13
13 14 14 14 14 14 14 14 14 14
14 14 14 14 14 14 14 14 14 14
14 15 15 15 15 15 15 15 15 15
15 15 15 15 15 15 15 15 15 15
15 16 16 16 16 16 16 16 16 16
16 16 16 16 16 16 16 16 16 16
16 17 17 17 17 17 17 17 17 17
17 17 17 17 17 17 17 17 17 17
17 18 18 18 18 18 18 18 18 18
18 18 18 18 18 18 18 18 18 18
18 19 19 19 19 19 19 19 19 19
19 19 19 19 19 19 19 19 19 19
19 20 20 20 20 20 20 20 20 20
20 20 20 20 20 20 20 20 20 20
20 13 13 13 13 13 13 13 13 13
13 13 13 13 13 13 13 13 13 13
13 13 13 13 13 13 13 13 13 13
13 13 13 13 13 13 13 13 13 13
13 13 13 13 13 13 13 13 13 13
13 13 13 13 13 13 13 13 13 13
13 13 13 13 13 13 13 13 13 13
13 13 13 13 13 13 13 13 13 13
13 13 13 13 13 13 13 13 13 13
13 13 13 13 13 13 13 13 13 13
13 13 13 13 13 13 13 13 13 13
13 13 13 13 13 13 13 13 13 13
13 13 13 13 13 13 13 13 13 13
13 13 13 13 13 13 13 13 13 13
13 13 13 13 13 13 13 13 13 13
13 13 13 13 13 13 13 13 13 13
13 13 13 13 13 13 13 13 13 13
13 13 13 13 13 13 13 13 13 13
13 13 13 13 13 13 13 13 13 13
13 13 13 13 13 13 13 13 13 13
13 13 13 13 13 13 13 13 13 13
13 13 13 13 13 13 13 13 13 13
13 13 13 13 13 13 13 13 13 13
13 13 13 13 13 13 13 13 13 13
13 13 13 13 13 13 13 13 13 13
13 13 13 13 13 13 13 13 13 13
13 13 13 13 13 13 13 13 13 13
13 13 13 13 13 13 13 13 13 13
13 13 13 13 13 13 13 13 13 13
13 13 13 13 13 13 13 13 13 13
13 13 13 13 13 13 13 13 13 13
13 13 13 13 13 13 13 13 13 13
13 13 13 13 13 13 13 13 13 13
13 13 13 13 13 13 13 13 13 13
13 13 13 13 13 13 13 13 13 13
13 13 13 13 13 13 13 13 13 13
13 13 13 13 13 13 13 13 13 13
13 13 13 13 13 13 13 13 13 13
13 13 13 13 13 13 13 13 13 13
13 13 13 13 13 13 13 13 13 13
13 13 13 13 13 13 13 13 13 13
13 13 13 13 13 13 13 13 13 13
13 13 13 13 13 13 13 13 13 13
13 13 13 13 13 13 13 13 13 13
13 13 13 13 13 13 13 13 13 13
13 13 13 13 13 13 13 13 13 13
13 13 13 13 13 13 13 13 13 13
13 13 13 13 13 13 13 13 13 13
13 13 13 13 13 13 13 13 13 13
13 13 13 13 13 13 13 13 13 13
13 13 13 13 13 13 13 13 13 13
13 13 13 13 13 13 13 13 13 13
13 13 13 13 13 13 13 13 13 13
13 13 13 13 13 13 13 13 13 13
13 13 13 13 13 13 13 13 13 13
13 13 13 13 13 13 13 13 13 13
13 13 13 13 13 13 13 13 13 13
13 13 13 13 13 13 13 13 13 13
13 13 13 13 13 13 13 13 13 13
13 13 13 13 13 13 13 13 13 13
13 13 13 13 13 13 13 13 13 13
13 13 13 13 13 13 13 13 13 13
13 13 13 13 13 13 13 13 13 13
13 13 13 13 13 13 13 13 13 13
13 13 13 13 13 13 13 13 13 13
13 13 13 13 13 13 13 13 13 13
13 13 13 13 13 13 13 13 13 13
13 13 13 13 13 13 13 13 13 13
13 13 13 13 13 13 13 13 13 13
13 13 13 13 13 13 13 13 13 13
13 13 13 13 13 13 13 13 13 13
13 13 13 13 13 13 13 13 13 13
13 13 13 13 13 13 13 13 13 13
13 13 13 13 13 13 13 13 13 13
13 13 13 13 13 13 13 13 13 13
13 13 13 13 13 13 13 13 13 13
13 13 13 13 13 13 13 13 13 13
13 13 13 13 13 13 13 13 13 13
13 13 13 13 13 13 13 13 13 13
13 13 13 13 13 13 13 21 21 21
21 21 21 21 21 21 21 21 21 21
21 21 21 21 21 21 21 21 21 21
21 21 21 21 21 21 21 21 21 21
21 21 21 21 21 21 21 21 21 21
21 21 21 21 21 21 21 21 21 21
21 21 21 21 21 21 21 21 21 21
21 21 21 21 21 21 21 21 21 21
21 21 21 21 21 21 21 21 21 21
21 21 21 21 21 21 21 21 21 21
21 21 21 21 21 21 21 21 21 21
21 21 21 21 21 21 21 21 21 21
21 21 21 21 21 21 21 21 21 21
21 21 21 21 21 21 21 21 21 21
21 21 21 21 21 21 21 21 21 21
21 21 21 21 21 21 21 21 21 21
21 21 21 21 21 21 21 21 21 21
21 21 21 21 21 21 21 21 21 21
21 21 21 21 21 21 21 21 21 21
21 21 21 21 21 21 21 21 21 21
21 21 21 21 21 21 21 21 21 21
21 21 21 21 21 21 21 21 21 21
21 21 21 21 21 21 21 21 21 21
21 21 21 21 21 21 21 21 21 21
21 21 21 21 21 21 21 21 21 21
21 21 21 21 21 21 21 21 21 21
21 21 21 21 21 21 21 21 21 21
21 21 21 21 21 21 21 21 21 21
21 21 21 21 21 21 21 21 21 21
21 21 21 21 21 21 21 21 21 21
21 21 21 21 21 21 21 21 21 21
21 21 21 21 21 21 21 21 21 21
21 21 21 21 21 21 21 21 21 21
21 21 21 21 21 21 21 21 21 21
21 21 21 21 21 21 21 21 21 21
21 21 21 21 21 21 21 21 21 21
21 21 21 21 21 21 21 21 21 21
21 21 21 21 21 21 21 21 21 21
21 21 21 21 21 21 21 21 21 21
21 21 21 21 21 21 21 21 21 21
21 21 21 21 21 21 21 21 21 21
21 21 21 21 21 21 21 21 21 21
21 21 21 21 21 21 21 21 21 21
21 21 21 21 21 21 21 21 21 21
21 21 21 21 21 21 21 21 21 21
21 21 21 21 21 21 21 21 21 21
21 21 21 21 21 21 21 21 21 21
21 21 21 21 21 21 21 21 21 21
21 21 21 21 21 21 21 21 21 21
21 21 21 21 21 21 21 21 21 21
21 21 21 21 21 21 21 21 21 21
21 21 21 21 21 21 21 21 21 21
21 21 21 21 21 21 21 21 21 21
21 21 21 21 21 21 21 21 21 21
21 21 21 21 21 21 21 21 21 21
21 21 21 21 21 21 21 21 21 21
21 21 21 21 21 21 21 21 21 21
21 21 21 21 21 21 21 21 21 21
21 21 21 21 21 21 21 21 21 21
21 21 21 21 21 21 21 21 21 21
21 21 21 21 21 21 21 21 21 21
21 21 21 21 21 21 21 21 21 21
21 21 21 21 21 21 21 21 21 21
21 21 21 21 21 21 21 21 21 21
21 21 21 21 21 21 21 21 21 21
21 21 21 21 21 21 21 21 21 21
21 21 21 21 21 21 21 21 21 21
21 21 21 21 21 21 21 21 21 21
21 21 21 21 21 21 21 21 21 21
21 21 21 21 21 21 21 21 21 21
21 21 21 21 21 21 21 21 21 21
21 21 21 21 21 21 21 21 21 21
21 21 21 21 21 21 21 21 21 21
21 21 21 21 21 21 21 21 21 21
21 21 21 21 21 21 21 21 21 21
21 21 21 21 21 21 21 21 21 21
21 21 21 21 21 21 21 21 21 21
21 21 21 21 21 21 21 21 21 21
21 21 21 21 21 21 21 21 21 21
21 21 21 21 21 21 21 21 21 21
21 21 21 21 21 21 21 21 21 21
21 21 21 21 21 21 21 21 21 21
21 21 21 21 21 21 21 21 21 21
21 21 21 21 21 21 21 21 21 21
21 21 21 21 21 22 22 22 22 22
22 22 22 22 22 22 22 22 22 22
22 22 22 22 22 23 23 23 23 23
23 23 23 23 23 23 23 23 23 23
23 23 23 23 23 24 24 24 24 24
24 24 24 24 24 24 24 24 24 24
24 24 24 24 24 25 25 25 25 25
25 25 25 25 25 25 25 25 25 25
25 25 25 25 25 26 26 26 26 26
26 26 26 26 26 26 26 26 26 26
26 26 26 26 26 27 27 27 27 27
27 27 27 27 27 27 27 27 27 27
27 27 27 27 27 28 28 28 28 28
28 28 28 28 28 28 28 28 28 28
28 28 28 28 28 21 21 21 21 21
21 21 21 21 21 21 21 21 21 21
21 21 21 21 21 21 21 21 21 21
21 21 21 21 21 21 21 21 21 21
21 21 21 21 21 21 21 21 21 21
21 21 21 21 21 21 21 21 21 21
21 21 21 21 21 21 21 21 21 21
21 21 21 21 21 21 21 21 21 21
21 21 21 21 21 21 21 21 21 21
21 21 21 21 21 21 21 21 21 21
21 21 21 21 21 21 21 21 21 21
21 21 21 21 21 21 21 21 21 21
21 21 21 21 21 21 21 21 21 21
21 21 21 21 21 21 21 21 21 21
21 21 21 21 21 21 21 21 21 21
21 21 21 21 21 21 21 21 21 21
21 21 21 21 21 21 21 21 21 21
21 21 21 21 21 21 21 21 21 21
21 21 21 21 21 21 21 21 21 21
21 21 21 21 21 21 21 21 21 21
21 21 21 21 21 21 21 21 21 21
21 21 21 21 21 21 21 21 21 21
21 21 21 21 21 21 21 21 21 21
21 21 21 21 21 21 21 21 21 21
21 21 21 21 21 21 21 21 21 21
21 21 21 21 21 21 21 21 21 21
21 21 21 21 21 21 21 21 21 21
21 21 21 21 21 21 21 21 21 21
21 21 21 21 21 21 21 21 21 21
21 21 21 21 21 21 21 21 21 21
21 21 21 21 21 21 21 21 21 21
21 21 21 21 21 21 21 21 21 21
21 21 21 21 21 21 21 21 21 21
21 21 21 21 21 21 21 21 21 21
21 21 21 21 21 21 21 21 21 21
21 21 21 21 21 21 21 21 21 21
21 21 21 21 21 21 21 21 21 21
21 21 21 21 21 21 21 21 21 21
21 21 21 21 21 21 21 21 21 21
21 21 21 21 21 21 21 21 21 21
21 21 21 21 21 21 21 21 21 21
21 21 21 21 21 21 21 21 21 21
21 21 21 21 21 21 21 21 21 21
21 21 21 21 21 21 21 21 21 21
21 21 21 21 21 21 21 21 21 21
21 21 21 21 21 21 21 21 21 21
21 21 21 21 21 21 21 21 21 21
21 21 21 21 21 21 21 21 21 21
21 21 21 21 21 21 21 21 21 21
21 21 21 21 21 21 21 21 21 21
21 21 21 21 21 21 21 21 21 21
21 21 21 21 21 21 21 21 21 21
21 21 21 21 21 21 21 21 21 21
21 21 21 21 21 21 21 21 21 21
21 21 21 21 21 21 21 21 21 21
21 21 21 21 21 21 21 21 21 21
21 21 21 21 21 21 21 21 21 21
21 21 21 21 21 21 21 21 21 21
21 21 21 21 21 21 21 21 21 21
21 21 21 21 21 21 21 21 21 21
21 21 21 21 21 21 21 21 21 21
21 21 21 21 21 21 21 21 21 21
21 21 21 21 21 21 21 21 21 21
21 21 21 21 21 21 21 21 21 21
21 21 21 21 21 21 21 21 21 21
21 21 21 21 21 21 21 21 21 21
21 21 21 21 21 21 21 21 21 21
21 21 21 21 21 21 21 21 21 21
21 21 21 21 21 21 21 21 21 21
21 21 21 21 21 21 21 21 21 21
21 21 21 21 21 21 21 21 21 21
21 21 21 21 21 21 21 21 21 21
21 21 21 21 21 21 21 21 21 21
21 21 21 21 21 21 21 21 21 21
21 21 21 21 21 21 21 21 21 21
21 21 21 21 21 21 21 21 21 21
21 21 21 21 21 21 21 21 21 21
21 21 21 21 21 21 21 21 21 21
21 21 21 21 21 21 21 21 21 21
21 21 21 21 21 21 21 21 21 21
21 29 29 29 29 29 29 29 29 29
29 29 29 29 29 29 29 29 29 29
29 29 29 29 29 29 29 29 29 29
29 29 29 29 29 29 29 29 29 29
29 29 29 29 29 29 29 29 29 29
29 29 29 29 29 29 29 29 29 29
29 29 29 29 29 29 29 29 29 29
29 29 29 29 29 29 29 29 29 29
29 29 29 29 29 29 29 29 29 29
29 29 29 29 29 29 29 29 29 29
29 29 29 29 29 29 29 29 29 29
29 29 29 29 29 29 29 29 29 29
29 29 29 29 29 29 29 29 29 29
29 29 29 29 29 29 29 29 29 29
29 29 29 29 29 29 29 29 29 29
29 29 29 29 29 29 29 29 29 29
29 29 29 29 29 29 29 29 29 29
29 29 29 29 29 29 29 29 29 29
29 29 29 29 29 29 29 29 29 29
29 29 29 29 29 29 29 29 29 29
29 29 29 29 29 29 29 29 29 29
29 29 29 29 29 29 29 29 29 29
29 29 29 29 29 29 29 29 29 29
29 29 29 29 29 29 29 29 29 29
29 29 29 29 29 29 29 29 29 29
29 29 29 29 29 29 29 29 29 29
29 29 29 29 29 29 29 29 29 29
29 29 29 29 29 29 29 29 29 29
29 29 29 29 29 29 29 29 29 29
29 29 29 29 29 29 29 29 29 29
29 29 29 29 29 29 29 29 29 29
29 29 29 29 29 29 29 29 29 29
29 29 29 29 29 29 29 29 29 29
29 29 29 29 29 29 29 29 29 29
29 29 29 29 29 29 29 29 29 29
29 29 29 29 29 29 29 29 29 29
29 29 29 29 29 29 29 29 29 29
29 29 29 29 29 29 29 29 29 29
29 29 29 29 29 29 29 29 29 29
29 29 29 29 29 29 29 29 29 29
29 29 29 29 29 29 29 29 29 29
29 29 29 29 29 29 29 29 29 29
29 29 29 29 29 29 29 29 29 29
29 29 29 29 29 29 29 29 29 29
29 29 29 29 29 29 29 29 29 29
29 29 29 29 29 29 29 29 29 29
29 29 29 29 29 29 29 29 29 29
29 29 29 29 29 29 29 29 29 29
29 29 29 29 29 29 29 29 29 29
29 29 29 29 29 29 29 29 29 29
29 29 29 29 29 29 29 29 29 29
29 29 29 29 29 29 29 29 29 29
29 29 29 29 29 29 29 29 29 29
29 29 29 29 29 29 29 29 29 29
29 29 29 29 29 29 29 29 29 29
29 29 29 29 29 29 29 29 29 29
29 29 29 29 29 29 29 29 29 29
29 29 29 29 29 29 29 29 29 29
29 29 29 29 29 29 29 29 29 29
29 29 29 29 29 29 29 29 29 29
29 29 29 29 29 29 29 29 29 29
29 29 29 29 29 29 29 29 29 29
29 29 29 29 29 29 29 29 29 29
29 29 29 29 29 29 29 29 29 29
29 29 29 29 29 29 29 29 29 29
29 29 29 29 29 29 29 29 29 29
29 29 29 29 29 29 29 29 29 29
29 29 29 29 29 29 29 29 29 29
29 29 29 29 29 29 29 29 29 29
29 29 29 29 29 29 29 29 29 29
29 29 29 29 29 29 29 29 29 29
29 29 29 29 29 29 29 29 29 29
29 29 29 29 29 29 29 29 29 29
29 29 29 29 29 29 29 29 29 29
29 29 29 29 29 29 29 29 29 29
29 29 29 29 29 29 29 29 29 29
29 29 29 29 29 29 29 29 29 29
29 29 29 29 29 29 29 29 29 29
29 29 29 29 29 29 29 29 29 29
29 29 29 29 29 29 29 29 29 29
29 29 29 29 29 29 29 29 29 29
29 29 29 29 29 29 29 29 29 29
29 29 29 29 29 29 29 29 29 29
29 29 29 29 29 29 29 29 29 30
30 30 30 30 30 30 30 30 30 30
30 30 30 30 30 30 30 30 30 31
31 31 31 31 31 31 31 31 31 31
31 31 31 31 31 31 31 31 31 32
32 32 32 32 32 32 32 32 32 32
32 32 32 32 32 32 32 32 32 33
33 33 33 33 33 33 33 33 33 33
33 33 33 33 33 33 33 33 33 34
34 34 34 34 34 34 34 34 34 34
34 34 34 34 34 34 34 34 34 35
35 35 35 35 35 35 35 35 35 35
35 35 35 35 35 35 35 35 35 36
36 36 36 36 36 36 36 36 36 36
36 36 36 36 36 36 36 36 36 29
29 29 29 29 29 29 29 29 29 29
29 29 29 29 29 29 29 29 29 29
29 29 29 29 29 29 29 29 29 29
29 29 29 29 29 29 29 29 29 29
29 29 29 29 29 29 29 29 29 29
29 29 29 29 29 29 29 29 29 29
29 29 29 29 29 29 29 29 29 29
29 29 29 29 29 29 29 29 29 29
29 29 29 29 29 29 29 29 29 29
29 29 29 29 29 29 29 29 29 29
29 29 29 29 29 29 29 29 29 29
29 29 29 29 29 29 29 29 29 29
29 29 29 29 29 29 29 29 29 29
29 29 29 29 29 29 29 29 29 29
29 29 29 29 29 29 29 29 29 29
29 29 29 29 29 29 29 29 29 29
29 29 29 29 29 29 29 29 29 29
29 29 29 29 29 29 29 29 29 29
29 29 29 29 29 29 29 29 29 29
29 29 29 29 29 29 29 29 29 29
29 29 29 29 29 29 29 29 29 29
29 29 29 29 29 29 29 29 29 29
29 29 29 29 29 29 29 29 29 29
29 29 29 29 29 29 29 29 29 29
29 29 29 29 29 29 29 29 29 29
29 29 29 29 29 29 29 29 29 29
29 29 29 29 29 29 29 29 29 29
29 29 29 29 29 29 29 29 29 29
29 29 29 29 29 29 29 29 29 29
29 29 29 29 29 29 29 29 29 29
29 29 29 29 29 29 29 29 29 29