/*--------------------------------*- C++ -*----------------------------------*\
  =========                 |
  \\      /  F ield         | OpenFOAM: The Open Source CFD Toolbox
   \\    /   O peration     | Website:  https://openfoam.org
    \\  /    A nd           | Version:  13
     \\/     M anipulation  |
\*---------------------------------------------------------------------------*/
FoamFile
{
    format      ascii;
    class       volScalarField;
    location    "0";
    object      k;
}
// * * * * * * * * * * * * * * * * * * * * * * * * * * * * * * * * * * * * * //

dimensions      [0 2 -2 0 0 0 0];

internalField   uniform 0.375;

boundaryField
{
    tarmac
    {
        type            kqRWallFunction;
        value           uniform 0.375;
    }
    upperArea
    {
        type            zeroGradient;
    }
    inlet
    {
        type            turbulentIntensityKineticEnergyInlet;
        intensity       0.05;
        value           nonuniform List<scalar> 0();
    }
    outlet
    {
        type            zeroGradient;
    }
    lateralArea
    {
        type            zeroGradient;
    }
    symmetryPlane
    {
        type            symmetry;
    }
    procBoundary0to1
    {
        type            processor;
        value           uniform 0.375;
    }
    procBoundary0to2
    {
        type            processor;
        value           uniform 0.375;
    }
}


// ************************************************************************* //
